 Entering Gaussian System, Link 0=g16
 Initial command:
 /pkg/gaussian/g16/g16/l1.exe "/work1/u49byc00/pi1-Cs-s-opt-a1.41207/Gau-55538.inp" -scrdir="/work1/u49byc00/pi1-Cs-s-opt-a1.41207/"
 Entering Link 1 = /pkg/gaussian/g16/g16/l1.exe PID=     55539.
  
 Copyright (c) 1988-2017, Gaussian, Inc.  All Rights Reserved.
  
 This is part of the Gaussian(R) 16 program.  It is based on
 the Gaussian(R) 09 system (copyright 2009, Gaussian, Inc.),
 the Gaussian(R) 03 system (copyright 2003, Gaussian, Inc.),
 the Gaussian(R) 98 system (copyright 1998, Gaussian, Inc.),
 the Gaussian(R) 94 system (copyright 1995, Gaussian, Inc.),
 the Gaussian 92(TM) system (copyright 1992, Gaussian, Inc.),
 the Gaussian 90(TM) system (copyright 1990, Gaussian, Inc.),
 the Gaussian 88(TM) system (copyright 1988, Gaussian, Inc.),
 the Gaussian 86(TM) system (copyright 1986, Carnegie Mellon
 University), and the Gaussian 82(TM) system (copyright 1983,
 Carnegie Mellon University). Gaussian is a federally registered
 trademark of Gaussian, Inc.
  
 This software contains proprietary and confidential information,
 including trade secrets, belonging to Gaussian, Inc.
  
 This software is provided under written license and may be
 used, copied, transmitted, or stored only in accord with that
 written license.
  
 The following legend is applicable only to US Government
 contracts under FAR:
  
                    RESTRICTED RIGHTS LEGEND
  
 Use, reproduction and disclosure by the US Government is
 subject to restrictions as set forth in subparagraphs (a)
 and (c) of the Commercial Computer Software - Restricted
 Rights clause in FAR 52.227-19.
  
 Gaussian, Inc.
 340 Quinnipiac St., Bldg. 40, Wallingford CT 06492
  
  
 ---------------------------------------------------------------
 Warning -- This program may not be used in any manner that
 competes with the business of Gaussian, Inc. or will provide
 assistance to any competitor of Gaussian, Inc.  The licensee
 of this program is prohibited from giving any competitor of
 Gaussian, Inc. access to this program.  By using this program,
 the user acknowledges that Gaussian, Inc. is engaged in the
 business of creating and licensing software in the field of
 computational chemistry and represents and warrants to the
 licensee that it is not a competitor of Gaussian, Inc. and that
 it will not use this program in any manner prohibited above.
 ---------------------------------------------------------------
  

 Cite this work as:
 Gaussian 16, Revision B.01,
 M. J. Frisch, G. W. Trucks, H. B. Schlegel, G. E. Scuseria, 
 M. A. Robb, J. R. Cheeseman, G. Scalmani, V. Barone, 
 G. A. Petersson, H. Nakatsuji, X. Li, M. Caricato, A. V. Marenich, 
 J. Bloino, B. G. Janesko, R. Gomperts, B. Mennucci, H. P. Hratchian, 
 J. V. Ortiz, A. F. Izmaylov, J. L. Sonnenberg, D. Williams-Young, 
 F. Ding, F. Lipparini, F. Egidi, J. Goings, B. Peng, A. Petrone, 
 T. Henderson, D. Ranasinghe, V. G. Zakrzewski, J. Gao, N. Rega, 
 G. Zheng, W. Liang, M. Hada, M. Ehara, K. Toyota, R. Fukuda, 
 J. Hasegawa, M. Ishida, T. Nakajima, Y. Honda, O. Kitao, H. Nakai, 
 T. Vreven, K. Throssell, J. A. Montgomery, Jr., J. E. Peralta, 
 F. Ogliaro, M. J. Bearpark, J. J. Heyd, E. N. Brothers, K. N. Kudin, 
 V. N. Staroverov, T. A. Keith, R. Kobayashi, J. Normand, 
 K. Raghavachari, A. P. Rendell, J. C. Burant, S. S. Iyengar, 
 J. Tomasi, M. Cossi, J. M. Millam, M. Klene, C. Adamo, R. Cammi, 
 J. W. Ochterski, R. L. Martin, K. Morokuma, O. Farkas, 
 J. B. Foresman, and D. J. Fox, Gaussian, Inc., Wallingford CT, 2016.
 
 ******************************************
 Gaussian 16:  ES64L-G16RevB.01 20-Dec-2017
                29-Dec-2022 
 ******************************************
 %chk=pi1-Cs-s-opt-a1.chk
 %nprocshared=8
 Will use up to    8 processors via shared memory.
 %mem=512MW
 ------------------------
 # b3lyp/cc-pvtz opt freq
 ------------------------
 1/18=20,19=15,26=3,38=1/1,3;
 2/9=110,12=2,17=6,18=5,40=1/2;
 3/5=16,6=1,11=2,25=1,30=1,71=1,74=-5/1,2,3;
 4//1;
 5/5=2,38=5/2;
 6/7=2,8=2,9=2,10=2,28=1/1;
 7//1,2,3,16;
 1/18=20,19=15,26=3/3(2);
 2/9=110/2;
 99//99;
 2/9=110/2;
 3/5=16,6=1,11=2,25=1,30=1,71=1,74=-5/1,2,3;
 4/5=5,16=3,69=1/1;
 5/5=2,38=5/2;
 7//1,2,3,16;
 1/18=20,19=15,26=3/3(-5);
 2/9=110/2;
 6/7=2,8=2,9=2,10=2,19=2,28=1/1;
 99/9=1/99;
 -------------------
 Title Card Required
 -------------------
 Symbolic Z-matrix:
 Charge =  0 Multiplicity = 1
 Si                    1.55586  -0.12277   0. 
 H                     1.39708  -1.60069   0. 
 H                     2.35239   0.25981   1.19776 
 H                     2.35239   0.25981  -1.19776 
 Si                   -1.60531  -0.14291   0. 
 H                    -0.14379   1.76931   0. 
 H                    -1.69558  -1.61561   0. 
 H                    -2.91677   0.53803   0. 
 C                    -0.10943   0.68418   0. 
 

 GradGradGradGradGradGradGradGradGradGradGradGradGradGradGradGradGradGrad
 Berny optimization.
 Initialization pass.
                           ----------------------------
                           !    Initial Parameters    !
                           ! (Angstroms and Degrees)  !
 --------------------------                            --------------------------
 ! Name  Definition              Value          Derivative Info.                !
 --------------------------------------------------------------------------------
 ! R1    R(1,2)                  1.4864         estimate D2E/DX2                !
 ! R2    R(1,3)                  1.4884         estimate D2E/DX2                !
 ! R3    R(1,4)                  1.4884         estimate D2E/DX2                !
 ! R4    R(1,9)                  1.8505         estimate D2E/DX2                !
 ! R5    R(5,7)                  1.4755         estimate D2E/DX2                !
 ! R6    R(5,8)                  1.4777         estimate D2E/DX2                !
 ! R7    R(5,9)                  1.7093         estimate D2E/DX2                !
 ! R8    R(6,9)                  1.0857         estimate D2E/DX2                !
 ! A1    A(2,1,3)              108.2237         estimate D2E/DX2                !
 ! A2    A(2,1,4)              108.2237         estimate D2E/DX2                !
 ! A3    A(2,1,9)              109.7214         estimate D2E/DX2                !
 ! A4    A(3,1,4)              107.164          estimate D2E/DX2                !
 ! A5    A(3,1,9)              111.6847         estimate D2E/DX2                !
 ! A6    A(4,1,9)              111.6847         estimate D2E/DX2                !
 ! A7    A(7,5,8)              113.9321         estimate D2E/DX2                !
 ! A8    A(7,5,9)              122.446          estimate D2E/DX2                !
 ! A9    A(8,5,9)              123.622          estimate D2E/DX2                !
 ! A10   A(1,9,5)              125.2081         estimate D2E/DX2                !
 ! A11   A(1,9,6)              117.6668         estimate D2E/DX2                !
 ! A12   A(5,9,6)              117.1251         estimate D2E/DX2                !
 ! D1    D(2,1,9,5)              0.0            estimate D2E/DX2                !
 ! D2    D(2,1,9,6)            180.0            estimate D2E/DX2                !
 ! D3    D(3,1,9,5)           -120.0038         estimate D2E/DX2                !
 ! D4    D(3,1,9,6)             59.9962         estimate D2E/DX2                !
 ! D5    D(4,1,9,5)            120.0038         estimate D2E/DX2                !
 ! D6    D(4,1,9,6)            -59.9962         estimate D2E/DX2                !
 ! D7    D(7,5,9,1)              0.0            estimate D2E/DX2                !
 ! D8    D(7,5,9,6)            180.0            estimate D2E/DX2                !
 ! D9    D(8,5,9,1)            180.0            estimate D2E/DX2                !
 ! D10   D(8,5,9,6)              0.0            estimate D2E/DX2                !
 --------------------------------------------------------------------------------
 Trust Radius=3.00D-01 FncErr=1.00D-07 GrdErr=1.00D-06 EigMax=2.50D+02 EigMin=1.00D-04
 Number of steps in this run=     40 maximum allowed number of steps=    100.
 GradGradGradGradGradGradGradGradGradGradGradGradGradGradGradGradGradGrad

                          Input orientation:                          
 ---------------------------------------------------------------------
 Center     Atomic      Atomic             Coordinates (Angstroms)
 Number     Number       Type             X           Y           Z
 ---------------------------------------------------------------------
      1         14           0        1.555860   -0.122770    0.000000
      2          1           0        1.397082   -1.600685    0.000000
      3          1           0        2.352389    0.259810    1.197757
      4          1           0        2.352389    0.259810   -1.197757
      5         14           0       -1.605313   -0.142911    0.000000
      6          1           0       -0.143787    1.769309    0.000000
      7          1           0       -1.695577   -1.615610    0.000000
      8          1           0       -2.916768    0.538028    0.000000
      9          6           0       -0.109430    0.684176    0.000000
 ---------------------------------------------------------------------
                    Distance matrix (angstroms):
                    1          2          3          4          5
     1  Si   0.000000
     2  H    1.486420   0.000000
     3  H    1.488438   2.410119   0.000000
     4  H    1.488438   2.410119   2.395515   0.000000
     5  Si   3.161237   3.337586   4.154541   4.154541   0.000000
     6  H    2.543376   3.705555   3.153427   3.153427   2.406791
     7  H    3.577767   3.092695   4.619291   4.619291   1.475463
     8  H    4.521179   4.814914   5.410734   5.410734   1.477698
     9  C    1.850501   2.736817   2.770426   2.770426   1.709309
                    6          7          8          9
     6  H    0.000000
     7  H    3.723671   0.000000
     8  H    3.034053   2.475775   0.000000
     9  C    1.085677   2.793721   2.811140   0.000000
 Stoichiometry    CH6Si2
 Framework group  CS[SG(CH4Si2),X(H2)]
 Deg. of freedom    14
 Full point group                 CS      NOp   2
 Largest Abelian subgroup         CS      NOp   2
 Largest concise Abelian subgroup CS      NOp   2
                         Standard orientation:                         
 ---------------------------------------------------------------------
 Center     Atomic      Atomic             Coordinates (Angstroms)
 Number     Number       Type             X           Y           Z
 ---------------------------------------------------------------------
      1         14           0        1.517086   -0.366669    0.000000
      2          1           0        1.127079   -1.801011    0.000000
      3          1           0        2.364008   -0.114578    1.197757
      4          1           0        2.364008   -0.114578   -1.197757
      5         14           0       -1.607657    0.112284    0.000000
      6          1           0        0.137311    1.769912    0.000000
      7          1           0       -1.929187   -1.327719    0.000000
      8          1           0       -2.795226    0.991643    0.000000
      9          6           0       -0.000000    0.692954    0.000000
 ---------------------------------------------------------------------
 Rotational constants (GHZ):          27.6231456           3.0181628           2.8083164
 Standard basis: CC-pVTZ (5D, 7F)
 There are   137 symmetry adapted cartesian basis functions of A'  symmetry.
 There are    66 symmetry adapted cartesian basis functions of A"  symmetry.
 There are   120 symmetry adapted basis functions of A'  symmetry.
 There are    62 symmetry adapted basis functions of A"  symmetry.
   182 basis functions,   344 primitive gaussians,   203 cartesian basis functions
    20 alpha electrons       20 beta electrons
       nuclear repulsion energy       134.3128264318 Hartrees.
 NAtoms=    9 NActive=    9 NUniq=    8 SFac= 1.27D+00 NAtFMM=   60 NAOKFM=F Big=F
 Integral buffers will be    131072 words long.
 Raffenetti 2 integral format.
 Two-electron integral symmetry is turned on.
 One-electron integrals computed using PRISM.
 NBasis=   182 RedAO= T EigKep=  1.50D-03  NBF=   120    62
 NBsUse=   182 1.00D-06 EigRej= -1.00D+00 NBFU=   120    62
 ExpMin= 7.89D-02 ExpMax= 2.55D+05 ExpMxC= 2.46D+03 IAcc=3 IRadAn=         5 AccDes= 0.00D+00
 Harris functional with IExCor=  402 and IRadAn=       5 diagonalized for initial guess.
 HarFok:  IExCor=  402 AccDes= 0.00D+00 IRadAn=         5 IDoV= 1 UseB2=F ITyADJ=14
 ICtDFT=  3500011 ScaDFX=  1.000000  1.000000  1.000000  1.000000
 FoFCou: FMM=F IPFlag=           0 FMFlag=      100000 FMFlg1=           0
         NFxFlg=           0 DoJE=T BraDBF=F KetDBF=T FulRan=T
         wScrn=  0.000000 ICntrl=       500 IOpCl=  0 I1Cent=   200000004 NGrid=           0
         NMat0=    1 NMatS0=      1 NMatT0=    0 NMatD0=    1 NMtDS0=    0 NMtDT0=    0
 Petite list used in FoFCou.
 Initial guess orbital symmetries:
       Occupied  (A') (A') (A') (A') (A') (A') (A') (A") (A') (A')
                 (A") (A') (A') (A') (A') (A') (A") (A') (A') (A")
       Virtual   (A") (A') (A') (A') (A') (A") (A') (A') (A') (A')
                 (A') (A") (A') (A") (A") (A') (A') (A') (A") (A")
                 (A') (A") (A') (A') (A') (A") (A') (A') (A') (A')
                 (A') (A') (A") (A') (A') (A') (A') (A") (A") (A")
                 (A') (A") (A") (A") (A') (A') (A') (A") (A') (A")
                 (A') (A') (A") (A') (A') (A") (A') (A") (A') (A')
                 (A') (A') (A") (A') (A") (A') (A") (A') (A') (A")
                 (A') (A") (A') (A') (A') (A") (A') (A') (A") (A')
                 (A") (A') (A') (A') (A") (A") (A') (A') (A") (A')
                 (A') (A') (A') (A') (A") (A") (A') (A') (A") (A')
                 (A') (A") (A') (A") (A') (A") (A') (A") (A') (A")
                 (A') (A') (A") (A') (A') (A') (A') (A") (A") (A')
                 (A') (A") (A") (A') (A") (A') (A') (A") (A") (A')
                 (A") (A') (A') (A') (A") (A') (A") (A') (A") (A')
                 (A") (A") (A') (A') (A") (A') (A') (A") (A') (A')
                 (A') (A') (A") (A') (A') (A") (A') (A') (A') (A')
                 (A') (A')
 The electronic state of the initial guess is 1-A'.
 Keep R1 ints in memory in symmetry-blocked form, NReq=208831501.
 Requested convergence on RMS density matrix=1.00D-08 within 128 cycles.
 Requested convergence on MAX density matrix=1.00D-06.
 Requested convergence on             energy=1.00D-06.
 No special actions if energy rises.
 Integral accuracy reduced to 1.0D-05 until final iterations.
 Initial convergence to 1.0D-05 achieved.  Increase integral accuracy.
 SCF Done:  E(RB3LYP) =  -620.725892750     A.U. after   12 cycles
            NFock= 12  Conv=0.43D-08     -V/T= 2.0036

 **********************************************************************

            Population analysis using the SCF Density.

 **********************************************************************

 Orbital symmetries:
       Occupied  (A') (A') (A') (A') (A') (A") (A') (A') (A') (A")
                 (A') (A') (A') (A') (A') (A') (A") (A') (A') (A")
       Virtual   (A") (A') (A') (A') (A') (A") (A') (A') (A') (A')
                 (A') (A") (A") (A') (A") (A') (A') (A') (A") (A")
                 (A') (A') (A") (A') (A') (A') (A") (A') (A') (A')
                 (A') (A') (A") (A') (A') (A') (A') (A") (A") (A")
                 (A') (A") (A") (A") (A') (A') (A') (A') (A") (A")
                 (A') (A') (A') (A") (A') (A") (A') (A") (A') (A')
                 (A') (A") (A') (A") (A') (A') (A") (A') (A') (A")
                 (A") (A') (A') (A') (A') (A") (A') (A') (A") (A')
                 (A") (A') (A') (A') (A") (A") (A') (A') (A") (A')
                 (A') (A') (A') (A') (A") (A') (A") (A') (A") (A')
                 (A') (A") (A') (A") (A') (A") (A') (A") (A') (A")
                 (A') (A') (A') (A") (A') (A") (A') (A') (A") (A')
                 (A') (A") (A") (A") (A') (A') (A') (A") (A") (A')
                 (A") (A') (A') (A") (A') (A') (A") (A') (A") (A")
                 (A') (A") (A') (A') (A') (A") (A') (A") (A') (A')
                 (A') (A') (A") (A') (A') (A") (A') (A') (A') (A')
                 (A') (A')
 The electronic state is 1-A'.
 Alpha  occ. eigenvalues --  -66.14517 -66.12354 -10.16596  -5.29313  -5.26898
 Alpha  occ. eigenvalues --   -3.65428  -3.65034  -3.64859  -3.62745  -3.62716
 Alpha  occ. eigenvalues --   -3.62707  -0.68115  -0.53411  -0.50212  -0.40575
 Alpha  occ. eigenvalues --   -0.36816  -0.34500  -0.33667  -0.32744  -0.24304
 Alpha virt. eigenvalues --   -0.06469   0.01401   0.02476   0.05609   0.05969
 Alpha virt. eigenvalues --    0.06557   0.07050   0.08633   0.11038   0.13965
 Alpha virt. eigenvalues --    0.17550   0.18853   0.19825   0.20335   0.21674
 Alpha virt. eigenvalues --    0.22461   0.24769   0.26071   0.27165   0.31006
 Alpha virt. eigenvalues --    0.31861   0.32928   0.33403   0.35071   0.37127
 Alpha virt. eigenvalues --    0.40089   0.41009   0.45638   0.47619   0.48942
 Alpha virt. eigenvalues --    0.52101   0.56415   0.58700   0.60876   0.62727
 Alpha virt. eigenvalues --    0.63343   0.64623   0.66581   0.68207   0.75980
 Alpha virt. eigenvalues --    0.79442   0.80507   0.82594   0.85416   0.86946
 Alpha virt. eigenvalues --    0.87683   0.88563   0.94046   0.94436   0.95508
 Alpha virt. eigenvalues --    0.96766   0.99577   1.02043   1.02544   1.03265
 Alpha virt. eigenvalues --    1.04884   1.10617   1.13742   1.15715   1.16924
 Alpha virt. eigenvalues --    1.19890   1.21274   1.23240   1.26349   1.27892
 Alpha virt. eigenvalues --    1.29504   1.31071   1.32004   1.34980   1.35695
 Alpha virt. eigenvalues --    1.39317   1.39604   1.43006   1.45387   1.49794
 Alpha virt. eigenvalues --    1.50465   1.52194   1.52444   1.54106   1.54984
 Alpha virt. eigenvalues --    1.61018   1.63686   1.69950   1.86099   2.14056
 Alpha virt. eigenvalues --    2.26462   2.29916   2.31673   2.32845   2.34182
 Alpha virt. eigenvalues --    2.47079   2.49733   2.53373   2.63283   2.78683
 Alpha virt. eigenvalues --    2.80971   2.82045   2.84588   2.88324   2.88543
 Alpha virt. eigenvalues --    2.97658   3.05604   3.09471   3.14342   3.15426
 Alpha virt. eigenvalues --    3.15492   3.19114   3.19644   3.24339   3.27428
 Alpha virt. eigenvalues --    3.27897   3.30444   3.34763   3.34805   3.38010
 Alpha virt. eigenvalues --    3.41123   3.41236   3.42104   3.44776   3.47403
 Alpha virt. eigenvalues --    3.48855   3.48921   3.56493   3.57277   3.58733
 Alpha virt. eigenvalues --    3.62439   3.63610   3.65800   3.68826   3.74384
 Alpha virt. eigenvalues --    3.76975   3.81380   3.84011   3.85352   3.85830
 Alpha virt. eigenvalues --    3.88123   3.89469   3.91085   3.91816   3.94576
 Alpha virt. eigenvalues --    3.95310   3.98147   4.04069   4.06197   4.11387
 Alpha virt. eigenvalues --    4.13630   4.14117   4.21415   4.21506   4.25899
 Alpha virt. eigenvalues --    4.32967   4.45379   4.64222   4.64511   4.67851
 Alpha virt. eigenvalues --    4.81843   4.89701   4.94787   5.03544   5.27187
 Alpha virt. eigenvalues --    5.67878   9.64424
          Condensed to atoms (all electrons):
               1          2          3          4          5          6
     1  Si  12.186857   0.405538   0.403217   0.403217  -0.045332  -0.027381
     2  H    0.405538   0.691677  -0.014894  -0.014894  -0.004430   0.002484
     3  H    0.403217  -0.014894   0.705712  -0.021517   0.000081  -0.000628
     4  H    0.403217  -0.014894  -0.021517   0.705712   0.000081  -0.000628
     5  Si  -0.045332  -0.004430   0.000081   0.000081  12.452047  -0.040424
     6  H   -0.027381   0.002484  -0.000628  -0.000628  -0.040424   0.553150
     7  H   -0.003077   0.001053   0.000011   0.000011   0.398654   0.002530
     8  H    0.003081   0.000031  -0.000051  -0.000051   0.392811  -0.002644
     9  C    0.453473  -0.016008  -0.019711  -0.019711   0.658628   0.379617
               7          8          9
     1  Si  -0.003077   0.003081   0.453473
     2  H    0.001053   0.000031  -0.016008
     3  H    0.000011  -0.000051  -0.019711
     4  H    0.000011  -0.000051  -0.019711
     5  Si   0.398654   0.392811   0.658628
     6  H    0.002530  -0.002644   0.379617
     7  H    0.633273  -0.019951  -0.016032
     8  H   -0.019951   0.645830  -0.013618
     9  C   -0.016032  -0.013618   4.978676
 Mulliken charges:
               1
     1  Si   0.220409
     2  H   -0.050556
     3  H   -0.052220
     4  H   -0.052220
     5  Si   0.187885
     6  H    0.133925
     7  H    0.003529
     8  H   -0.005437
     9  C   -0.385313
 Sum of Mulliken charges =  -0.00000
 Mulliken charges with hydrogens summed into heavy atoms:
               1
     1  Si   0.065411
     5  Si   0.185976
     9  C   -0.251388
 Electronic spatial extent (au):  <R**2>=            470.7043
 Charge=              0.0000 electrons
 Dipole moment (field-independent basis, Debye):
    X=             -1.6448    Y=              0.2933    Z=              0.0000  Tot=              1.6708
 Quadrupole moment (field-independent basis, Debye-Ang):
   XX=            -34.9761   YY=            -35.5977   ZZ=            -37.2388
   XY=              0.6312   XZ=             -0.0000   YZ=             -0.0000
 Traceless Quadrupole moment (field-independent basis, Debye-Ang):
   XX=              0.9615   YY=              0.3398   ZZ=             -1.3013
   XY=              0.6312   XZ=             -0.0000   YZ=             -0.0000
 Octapole moment (field-independent basis, Debye-Ang**2):
  XXX=            -10.4898  YYY=              6.4239  ZZZ=              0.0000  XYY=              0.1118
  XXY=             -0.0553  XXZ=             -0.0000  XZZ=             -4.0945  YZZ=             -0.7796
  YYZ=              0.0000  XYZ=             -0.0000
 Hexadecapole moment (field-independent basis, Debye-Ang**3):
 XXXX=           -564.5182 YYYY=           -128.2652 ZZZZ=            -76.2830 XXXY=             35.5996
 XXXZ=              0.0000 YYYX=             37.8849 YYYZ=             -0.0000 ZZZX=              0.0000
 ZZZY=             -0.0000 XXYY=           -114.8574 XXZZ=           -108.6773 YYZZ=            -35.4413
 XXYZ=              0.0000 YYXZ=             -0.0000 ZZXY=             12.4711
 N-N= 1.343128264318D+02 E-N=-1.742964576913D+03  KE= 6.185158060020D+02
 Symmetry A'   KE= 5.663000923896D+02
 Symmetry A"   KE= 5.221571361244D+01
 Calling FoFJK, ICntrl=      2127 FMM=F ISym2X=1 I1Cent= 0 IOpClX= 0 NMat=1 NMatS=1 NMatT=0.
 ***** Axes restored to original set *****
 -------------------------------------------------------------------
 Center     Atomic                   Forces (Hartrees/Bohr)
 Number     Number              X              Y              Z
 -------------------------------------------------------------------
      1       14          -0.000170810   -0.000154333   -0.000000000
      2        1          -0.000036292   -0.000025491    0.000000000
      3        1           0.000086612    0.000090070   -0.000138254
      4        1           0.000086612    0.000090070    0.000138254
      5       14           0.000005386    0.000033963   -0.000000000
      6        1           0.000003282   -0.000000155   -0.000000000
      7        1           0.000010105    0.000000457   -0.000000000
      8        1          -0.000011296   -0.000012403    0.000000000
      9        6           0.000026402   -0.000022179   -0.000000000
 -------------------------------------------------------------------
 Cartesian Forces:  Max     0.000170810 RMS     0.000068633

 GradGradGradGradGradGradGradGradGradGradGradGradGradGradGradGradGradGrad
 Berny optimization.
 FormGI is forming the generalized inverse of G from B-inverse, IUseBI=4.
 Internal  Forces:  Max     0.000238931 RMS     0.000065318
 Search for a local minimum.
 Step number   1 out of a maximum of   40
 All quantities printed in internal units (Hartrees-Bohrs-Radians)
 Mixed Optimization -- En-DIIS/RFO-DIIS
 Second derivative matrix not updated -- first step.
 ITU=  0
     Eigenvalues ---    0.01423   0.02165   0.03290   0.03290   0.07520
     Eigenvalues ---    0.07694   0.16000   0.16000   0.16000   0.16000
     Eigenvalues ---    0.16000   0.16000   0.17381   0.17381   0.17474
     Eigenvalues ---    0.17882   0.17989   0.22000   0.22511   0.34793
     Eigenvalues ---    0.35317
 RFO step:  Lambda=-1.33598767D-06 EMin= 1.42250178D-02
 Linear search not attempted -- first point.
 Iteration  1 RMS(Cart)=  0.00079936 RMS(Int)=  0.00000061
 Iteration  2 RMS(Cart)=  0.00000058 RMS(Int)=  0.00000013
 ClnCor:  largest displacement from symmetrization is 7.66D-12 for atom     8.
 Variable       Old X    -DE/DX   Delta X   Delta X   Delta X     New X
                                 (Linear)    (Quad)   (Total)
    R1        2.80893   0.00003   0.00000   0.00017   0.00017   2.80909
    R2        2.81274  -0.00004   0.00000  -0.00024  -0.00024   2.81250
    R3        2.81274  -0.00004   0.00000  -0.00024  -0.00024   2.81250
    R4        3.49694  -0.00003   0.00000  -0.00013  -0.00013   3.49680
    R5        2.78822  -0.00000   0.00000  -0.00001  -0.00001   2.78821
    R6        2.79244   0.00000   0.00000   0.00002   0.00002   2.79247
    R7        3.23013  -0.00001   0.00000  -0.00004  -0.00004   3.23008
    R8        2.05163  -0.00000   0.00000  -0.00000  -0.00000   2.05163
    A1        1.88886   0.00006   0.00000   0.00086   0.00086   1.88972
    A2        1.88886   0.00006   0.00000   0.00086   0.00086   1.88972
    A3        1.91500  -0.00003   0.00000   0.00032   0.00032   1.91532
    A4        1.87037  -0.00024   0.00000  -0.00239  -0.00239   1.86797
    A5        1.94927   0.00007   0.00000   0.00018   0.00018   1.94944
    A6        1.94927   0.00007   0.00000   0.00018   0.00018   1.94944
    A7        1.98849  -0.00001   0.00000  -0.00003  -0.00003   1.98846
    A8        2.13709  -0.00003   0.00000  -0.00020  -0.00020   2.13688
    A9        2.15761   0.00004   0.00000   0.00024   0.00024   2.15785
   A10        2.18529  -0.00001   0.00000  -0.00002  -0.00002   2.18527
   A11        2.05367  -0.00000   0.00000  -0.00001  -0.00001   2.05366
   A12        2.04422   0.00001   0.00000   0.00004   0.00004   2.04425
    D1        0.00000  -0.00000   0.00000  -0.00000   0.00000   0.00000
    D2        3.14159  -0.00000   0.00000  -0.00000   0.00000   3.14159
    D3       -2.09446  -0.00011   0.00000  -0.00140  -0.00140  -2.09587
    D4        1.04713  -0.00011   0.00000  -0.00140  -0.00140   1.04573
    D5        2.09446   0.00011   0.00000   0.00140   0.00140   2.09587
    D6       -1.04713   0.00011   0.00000   0.00140   0.00140  -1.04573
    D7        0.00000  -0.00000   0.00000  -0.00000   0.00000   0.00000
    D8        3.14159  -0.00000   0.00000  -0.00000   0.00000   3.14159
    D9        3.14159   0.00000   0.00000   0.00000   0.00000   3.14159
   D10        0.00000   0.00000   0.00000   0.00000   0.00000   0.00000
         Item               Value     Threshold  Converged?
 Maximum Force            0.000239     0.000450     YES
 RMS     Force            0.000065     0.000300     YES
 Maximum Displacement     0.002192     0.001800     NO 
 RMS     Displacement     0.000799     0.001200     YES
 Predicted change in Energy=-6.679948D-07
 GradGradGradGradGradGradGradGradGradGradGradGradGradGradGradGradGradGrad

                          Input orientation:                          
 ---------------------------------------------------------------------
 Center     Atomic      Atomic             Coordinates (Angstroms)
 Number     Number       Type             X           Y           Z
 ---------------------------------------------------------------------
      1         14           0        1.555523   -0.123283    0.000000
      2          1           0        1.396899   -1.601305    0.000000
      3          1           0        2.352999    0.260457    1.196597
      4          1           0        2.352999    0.260457   -1.196597
      5         14           0       -1.605550   -0.142817    0.000000
      6          1           0       -0.143651    1.769122    0.000000
      7          1           0       -1.695785   -1.615514    0.000000
      8          1           0       -2.917054    0.538057    0.000000
      9          6           0       -0.109533    0.683982    0.000000
 ---------------------------------------------------------------------
                    Distance matrix (angstroms):
                    1          2          3          4          5
     1  Si   0.000000
     2  H    1.486509   0.000000
     3  H    1.488311   2.410836   0.000000
     4  H    1.488311   2.410836   2.393195   0.000000
     5  Si   3.161133   3.337946   4.155067   4.155067   0.000000
     6  H    2.543303   3.705816   3.152962   3.152962   2.406795
     7  H    3.577395   3.092717   4.619931   4.619931   1.475459
     8  H    4.521207   4.815294   5.411317   5.411317   1.477711
     9  C    1.850429   2.737128   2.770430   2.770430   1.709287
                    6          7          8          9
     6  H    0.000000
     7  H    3.723558   0.000000
     8  H    3.034351   2.475755   0.000000
     9  C    1.085676   2.793542   2.811310   0.000000
 Stoichiometry    CH6Si2
 Framework group  CS[SG(CH4Si2),X(H2)]
 Deg. of freedom    14
 Full point group                 CS      NOp   2
 Largest Abelian subgroup         CS      NOp   2
 Largest concise Abelian subgroup CS      NOp   2
                         Standard orientation:                         
 ---------------------------------------------------------------------
 Center     Atomic      Atomic             Coordinates (Angstroms)
 Number     Number       Type             X           Y           Z
 ---------------------------------------------------------------------
      1         14           0        1.516942   -0.366800    0.000000
      2          1           0        1.127255   -1.801322    0.000000
      3          1           0        2.364949   -0.113601    1.196597
      4          1           0        2.364949   -0.113601   -1.196597
      5         14           0       -1.607669    0.112334    0.000000
      6          1           0        0.137409    1.769851    0.000000
      7          1           0       -1.928983   -1.327713    0.000000
      8          1           0       -2.795410    0.991482    0.000000
      9          6           0       -0.000000    0.692905    0.000000
 ---------------------------------------------------------------------
 Rotational constants (GHZ):          27.6293615           3.0182778           2.8083055
 Standard basis: CC-pVTZ (5D, 7F)
 There are   137 symmetry adapted cartesian basis functions of A'  symmetry.
 There are    66 symmetry adapted cartesian basis functions of A"  symmetry.
 There are   120 symmetry adapted basis functions of A'  symmetry.
 There are    62 symmetry adapted basis functions of A"  symmetry.
   182 basis functions,   344 primitive gaussians,   203 cartesian basis functions
    20 alpha electrons       20 beta electrons
       nuclear repulsion energy       134.3152021568 Hartrees.
 NAtoms=    9 NActive=    9 NUniq=    8 SFac= 1.27D+00 NAtFMM=   60 NAOKFM=F Big=F
 Integral buffers will be    131072 words long.
 Raffenetti 2 integral format.
 Two-electron integral symmetry is turned on.
 One-electron integrals computed using PRISM.
 NBasis=   182 RedAO= T EigKep=  1.50D-03  NBF=   120    62
 NBsUse=   182 1.00D-06 EigRej= -1.00D+00 NBFU=   120    62
 Initial guess from the checkpoint file:  "pi1-Cs-s-opt-a1.chk"
 B after Tr=    -0.000000   -0.000000    0.000000
         Rot=    1.000000    0.000000   -0.000000   -0.000004 Ang=  -0.00 deg.
 Initial guess orbital symmetries:
       Occupied  (A') (A') (A') (A') (A') (A") (A') (A') (A') (A")
                 (A') (A') (A') (A') (A') (A') (A") (A') (A') (A")
       Virtual   (A") (A') (A') (A') (A') (A") (A') (A') (A') (A')
                 (A') (A") (A") (A') (A") (A') (A') (A') (A") (A")
                 (A') (A') (A") (A') (A') (A') (A") (A') (A') (A')
                 (A') (A') (A") (A') (A') (A') (A') (A") (A") (A")
                 (A') (A") (A") (A") (A') (A') (A') (A') (A") (A")
                 (A') (A') (A') (A") (A') (A") (A') (A") (A') (A')
                 (A') (A") (A') (A") (A') (A') (A") (A') (A') (A")
                 (A") (A') (A') (A') (A') (A") (A') (A') (A") (A')
                 (A") (A') (A') (A') (A") (A") (A') (A') (A") (A')
                 (A') (A') (A') (A') (A") (A') (A") (A') (A") (A')
                 (A') (A") (A') (A") (A') (A") (A') (A") (A') (A")
                 (A') (A') (A') (A") (A') (A") (A') (A') (A") (A')
                 (A') (A") (A") (A") (A') (A') (A') (A") (A") (A')
                 (A") (A') (A') (A") (A') (A') (A") (A') (A") (A")
                 (A') (A") (A') (A') (A') (A") (A') (A") (A') (A')
                 (A') (A') (A") (A') (A') (A") (A') (A') (A') (A')
                 (A') (A')
 Keep R1 ints in memory in symmetry-blocked form, NReq=208831501.
 Requested convergence on RMS density matrix=1.00D-08 within 128 cycles.
 Requested convergence on MAX density matrix=1.00D-06.
 Requested convergence on             energy=1.00D-06.
 No special actions if energy rises.
 SCF Done:  E(RB3LYP) =  -620.725893635     A.U. after    6 cycles
            NFock=  6  Conv=0.49D-08     -V/T= 2.0036
 Calling FoFJK, ICntrl=      2127 FMM=F ISym2X=1 I1Cent= 0 IOpClX= 0 NMat=1 NMatS=1 NMatT=0.
 ***** Axes restored to original set *****
 -------------------------------------------------------------------
 Center     Atomic                   Forces (Hartrees/Bohr)
 Number     Number              X              Y              Z
 -------------------------------------------------------------------
      1       14          -0.000082938   -0.000075917   -0.000000000
      2        1          -0.000023735    0.000021244   -0.000000000
      3        1           0.000047201    0.000037714   -0.000023764
      4        1           0.000047201    0.000037714    0.000023764
      5       14          -0.000010143    0.000012865    0.000000000
      6        1           0.000012157   -0.000001873   -0.000000000
      7        1           0.000004361   -0.000002678    0.000000000
      8        1          -0.000002024   -0.000008279    0.000000000
      9        6           0.000007920   -0.000020790   -0.000000000
 -------------------------------------------------------------------
 Cartesian Forces:  Max     0.000082938 RMS     0.000029250

 GradGradGradGradGradGradGradGradGradGradGradGradGradGradGradGradGradGrad
 Berny optimization.
 Using GEDIIS/GDIIS optimizer.
 FormGI is forming the generalized inverse of G from B-inverse, IUseBI=4.
 Internal  Forces:  Max     0.000084187 RMS     0.000025083
 Search for a local minimum.
 Step number   2 out of a maximum of   40
 All quantities printed in internal units (Hartrees-Bohrs-Radians)
 Mixed Optimization -- En-DIIS/RFO-DIIS
 Swapping is turned off.
 Update second derivatives using D2CorX and points    1    2
 DE= -8.85D-07 DEPred=-6.68D-07 R= 1.32D+00
 Trust test= 1.32D+00 RLast= 3.94D-03 DXMaxT set to 3.00D-01
 ITU=  0  0
     Eigenvalues ---    0.01423   0.02165   0.03290   0.03290   0.05375
     Eigenvalues ---    0.07686   0.14455   0.16000   0.16000   0.16000
     Eigenvalues ---    0.16000   0.16115   0.17381   0.17444   0.17877
     Eigenvalues ---    0.17984   0.18181   0.22003   0.22476   0.34824
     Eigenvalues ---    0.35318
 En-DIIS/RFO-DIIS/Sim-DIIS IScMMF=       -3 using points:     2    1
 RFO step:  Lambda=-2.62843866D-07.
 DidBck=F Rises=F RFO-DIIS coefs:    1.50463   -0.50463
 Iteration  1 RMS(Cart)=  0.00043784 RMS(Int)=  0.00000018
 Iteration  2 RMS(Cart)=  0.00000017 RMS(Int)=  0.00000008
 ClnCor:  largest displacement from symmetrization is 1.35D-11 for atom     8.
 Variable       Old X    -DE/DX   Delta X   Delta X   Delta X     New X
                                 (Linear)    (Quad)   (Total)
    R1        2.80909  -0.00002   0.00009  -0.00023  -0.00015   2.80895
    R2        2.81250   0.00002  -0.00012   0.00025   0.00012   2.81262
    R3        2.81250   0.00002  -0.00012   0.00025   0.00012   2.81262
    R4        3.49680  -0.00002  -0.00007  -0.00007  -0.00014   3.49667
    R5        2.78821   0.00000  -0.00000   0.00002   0.00002   2.78823
    R6        2.79247  -0.00000   0.00001  -0.00003  -0.00001   2.79246
    R7        3.23008   0.00001  -0.00002   0.00004   0.00002   3.23011
    R8        2.05163  -0.00000  -0.00000  -0.00001  -0.00001   2.05162
    A1        1.88972   0.00003   0.00043   0.00009   0.00052   1.89024
    A2        1.88972   0.00003   0.00043   0.00009   0.00052   1.89024
    A3        1.91532  -0.00004   0.00016  -0.00031  -0.00015   1.91517
    A4        1.86797  -0.00008  -0.00121  -0.00007  -0.00128   1.86669
    A5        1.94944   0.00003   0.00009   0.00010   0.00019   1.94964
    A6        1.94944   0.00003   0.00009   0.00010   0.00019   1.94964
    A7        1.98846  -0.00000  -0.00002  -0.00001  -0.00003   1.98842
    A8        2.13688  -0.00002  -0.00010  -0.00004  -0.00015   2.13673
    A9        2.15785   0.00002   0.00012   0.00006   0.00018   2.15803
   A10        2.18527   0.00000  -0.00001   0.00001   0.00000   2.18527
   A11        2.05366  -0.00001  -0.00001  -0.00011  -0.00012   2.05354
   A12        2.04425   0.00001   0.00002   0.00010   0.00012   2.04437
    D1        0.00000  -0.00000   0.00000  -0.00000   0.00000   0.00000
    D2        3.14159   0.00000   0.00000  -0.00000   0.00000   3.14159
    D3       -2.09587  -0.00003  -0.00071   0.00003  -0.00068  -2.09655
    D4        1.04573  -0.00003  -0.00071   0.00003  -0.00068   1.04504
    D5        2.09587   0.00003   0.00071  -0.00003   0.00068   2.09655
    D6       -1.04573   0.00003   0.00071  -0.00003   0.00068  -1.04504
    D7        0.00000   0.00000   0.00000   0.00000   0.00000   0.00000
    D8        3.14159  -0.00000   0.00000  -0.00000   0.00000   3.14159
    D9        3.14159   0.00000   0.00000   0.00000   0.00000   3.14159
   D10        0.00000   0.00000   0.00000  -0.00000   0.00000   0.00000
         Item               Value     Threshold  Converged?
 Maximum Force            0.000084     0.000450     YES
 RMS     Force            0.000025     0.000300     YES
 Maximum Displacement     0.000970     0.001800     YES
 RMS     Displacement     0.000438     0.001200     YES
 Predicted change in Energy=-1.314222D-07
 Optimization completed.
    -- Stationary point found.
                           ----------------------------
                           !   Optimized Parameters   !
                           ! (Angstroms and Degrees)  !
 --------------------------                            --------------------------
 ! Name  Definition              Value          Derivative Info.                !
 --------------------------------------------------------------------------------
 ! R1    R(1,2)                  1.4865         -DE/DX =    0.0                 !
 ! R2    R(1,3)                  1.4883         -DE/DX =    0.0                 !
 ! R3    R(1,4)                  1.4883         -DE/DX =    0.0                 !
 ! R4    R(1,9)                  1.8504         -DE/DX =    0.0                 !
 ! R5    R(5,7)                  1.4755         -DE/DX =    0.0                 !
 ! R6    R(5,8)                  1.4777         -DE/DX =    0.0                 !
 ! R7    R(5,9)                  1.7093         -DE/DX =    0.0                 !
 ! R8    R(6,9)                  1.0857         -DE/DX =    0.0                 !
 ! A1    A(2,1,3)              108.2728         -DE/DX =    0.0                 !
 ! A2    A(2,1,4)              108.2728         -DE/DX =    0.0                 !
 ! A3    A(2,1,9)              109.7397         -DE/DX =    0.0                 !
 ! A4    A(3,1,4)              107.027          -DE/DX =   -0.0001              !
 ! A5    A(3,1,9)              111.6949         -DE/DX =    0.0                 !
 ! A6    A(4,1,9)              111.6949         -DE/DX =    0.0                 !
 ! A7    A(7,5,8)              113.9301         -DE/DX =    0.0                 !
 ! A8    A(7,5,9)              122.4342         -DE/DX =    0.0                 !
 ! A9    A(8,5,9)              123.6357         -DE/DX =    0.0                 !
 ! A10   A(1,9,5)              125.2066         -DE/DX =    0.0                 !
 ! A11   A(1,9,6)              117.6662         -DE/DX =    0.0                 !
 ! A12   A(5,9,6)              117.1272         -DE/DX =    0.0                 !
 ! D1    D(2,1,9,5)              0.0            -DE/DX =    0.0                 !
 ! D2    D(2,1,9,6)            180.0            -DE/DX =    0.0                 !
 ! D3    D(3,1,9,5)           -120.0842         -DE/DX =    0.0                 !
 ! D4    D(3,1,9,6)             59.9158         -DE/DX =    0.0                 !
 ! D5    D(4,1,9,5)            120.0842         -DE/DX =    0.0                 !
 ! D6    D(4,1,9,6)            -59.9158         -DE/DX =    0.0                 !
 ! D7    D(7,5,9,1)              0.0            -DE/DX =    0.0                 !
 ! D8    D(7,5,9,6)            180.0            -DE/DX =    0.0                 !
 ! D9    D(8,5,9,1)            180.0            -DE/DX =    0.0                 !
 ! D10   D(8,5,9,6)              0.0            -DE/DX =    0.0                 !
 --------------------------------------------------------------------------------
 GradGradGradGradGradGradGradGradGradGradGradGradGradGradGradGradGradGrad

                          Input orientation:                          
 ---------------------------------------------------------------------
 Center     Atomic      Atomic             Coordinates (Angstroms)
 Number     Number       Type             X           Y           Z
 ---------------------------------------------------------------------
      1         14           0        1.555523   -0.123283    0.000000
      2          1           0        1.396899   -1.601305    0.000000
      3          1           0        2.352999    0.260457    1.196597
      4          1           0        2.352999    0.260457   -1.196597
      5         14           0       -1.605550   -0.142817    0.000000
      6          1           0       -0.143651    1.769122    0.000000
      7          1           0       -1.695785   -1.615514    0.000000
      8          1           0       -2.917054    0.538057    0.000000
      9          6           0       -0.109533    0.683982    0.000000
 ---------------------------------------------------------------------
                    Distance matrix (angstroms):
                    1          2          3          4          5
     1  Si   0.000000
     2  H    1.486509   0.000000
     3  H    1.488311   2.410836   0.000000
     4  H    1.488311   2.410836   2.393195   0.000000
     5  Si   3.161133   3.337946   4.155067   4.155067   0.000000
     6  H    2.543303   3.705816   3.152962   3.152962   2.406795
     7  H    3.577395   3.092717   4.619931   4.619931   1.475459
     8  H    4.521207   4.815294   5.411317   5.411317   1.477711
     9  C    1.850429   2.737128   2.770430   2.770430   1.709287
                    6          7          8          9
     6  H    0.000000
     7  H    3.723558   0.000000
     8  H    3.034351   2.475755   0.000000
     9  C    1.085676   2.793542   2.811310   0.000000
 Stoichiometry    CH6Si2
 Framework group  CS[SG(CH4Si2),X(H2)]
 Deg. of freedom    14
 Full point group                 CS      NOp   2
 Largest Abelian subgroup         CS      NOp   2
 Largest concise Abelian subgroup CS      NOp   2
                         Standard orientation:                         
 ---------------------------------------------------------------------
 Center     Atomic      Atomic             Coordinates (Angstroms)
 Number     Number       Type             X           Y           Z
 ---------------------------------------------------------------------
      1         14           0        1.516942   -0.366800    0.000000
      2          1           0        1.127255   -1.801322    0.000000
      3          1           0        2.364949   -0.113601    1.196597
      4          1           0        2.364949   -0.113601   -1.196597
      5         14           0       -1.607669    0.112334    0.000000
      6          1           0        0.137409    1.769851    0.000000
      7          1           0       -1.928983   -1.327713    0.000000
      8          1           0       -2.795410    0.991482    0.000000
      9          6           0       -0.000000    0.692905    0.000000
 ---------------------------------------------------------------------
 Rotational constants (GHZ):          27.6293615           3.0182778           2.8083055

 **********************************************************************

            Population analysis using the SCF Density.

 **********************************************************************

 Orbital symmetries:
       Occupied  (A') (A') (A') (A') (A') (A") (A') (A') (A') (A")
                 (A') (A') (A') (A') (A') (A') (A") (A') (A') (A")
       Virtual   (A") (A') (A') (A') (A') (A") (A') (A') (A') (A')
                 (A') (A") (A") (A') (A") (A') (A') (A') (A") (A")
                 (A') (A') (A") (A') (A') (A') (A") (A') (A') (A')
                 (A') (A') (A") (A') (A') (A') (A') (A") (A") (A")
                 (A') (A") (A") (A") (A') (A') (A') (A') (A") (A")
                 (A') (A') (A') (A") (A') (A") (A') (A") (A') (A')
                 (A') (A") (A') (A") (A') (A') (A") (A') (A') (A")
                 (A") (A') (A') (A') (A') (A") (A') (A') (A") (A')
                 (A") (A') (A') (A') (A") (A") (A') (A') (A") (A')
                 (A') (A') (A') (A') (A") (A') (A") (A') (A") (A')
                 (A') (A") (A') (A") (A') (A") (A') (A") (A') (A")
                 (A') (A') (A') (A") (A') (A") (A') (A') (A") (A')
                 (A') (A") (A") (A") (A') (A') (A') (A") (A") (A')
                 (A") (A') (A') (A") (A') (A') (A") (A') (A") (A")
                 (A') (A") (A') (A') (A') (A") (A') (A") (A') (A')
                 (A') (A') (A") (A') (A') (A") (A') (A') (A') (A')
                 (A') (A')
 The electronic state is 1-A'.
 Alpha  occ. eigenvalues --  -66.14518 -66.12352 -10.16598  -5.29315  -5.26896
 Alpha  occ. eigenvalues --   -3.65430  -3.65035  -3.64860  -3.62743  -3.62715
 Alpha  occ. eigenvalues --   -3.62705  -0.68117  -0.53413  -0.50213  -0.40579
 Alpha  occ. eigenvalues --   -0.36817  -0.34486  -0.33673  -0.32752  -0.24305
 Alpha virt. eigenvalues --   -0.06470   0.01401   0.02475   0.05621   0.05969
 Alpha virt. eigenvalues --    0.06543   0.07052   0.08636   0.11038   0.13965
 Alpha virt. eigenvalues --    0.17549   0.18856   0.19825   0.20332   0.21677
 Alpha virt. eigenvalues --    0.22456   0.24772   0.26068   0.27161   0.31006
 Alpha virt. eigenvalues --    0.31865   0.32929   0.33397   0.35085   0.37127
 Alpha virt. eigenvalues --    0.40085   0.41000   0.45640   0.47621   0.48946
 Alpha virt. eigenvalues --    0.52102   0.56415   0.58699   0.60879   0.62724
 Alpha virt. eigenvalues --    0.63344   0.64623   0.66578   0.68236   0.75980
 Alpha virt. eigenvalues --    0.79438   0.80504   0.82591   0.85415   0.86948
 Alpha virt. eigenvalues --    0.87682   0.88570   0.94043   0.94431   0.95504
 Alpha virt. eigenvalues --    0.96765   0.99576   1.02052   1.02541   1.03267
 Alpha virt. eigenvalues --    1.04867   1.10634   1.13727   1.15724   1.16921
 Alpha virt. eigenvalues --    1.19897   1.21255   1.23296   1.26338   1.27905
 Alpha virt. eigenvalues --    1.29513   1.31067   1.32005   1.34996   1.35696
 Alpha virt. eigenvalues --    1.39290   1.39599   1.43008   1.45379   1.49797
 Alpha virt. eigenvalues --    1.50489   1.52183   1.52444   1.54111   1.54980
 Alpha virt. eigenvalues --    1.61036   1.63691   1.69941   1.86099   2.14053
 Alpha virt. eigenvalues --    2.26467   2.29913   2.31665   2.32887   2.34176
 Alpha virt. eigenvalues --    2.47082   2.49739   2.53370   2.63280   2.78612
 Alpha virt. eigenvalues --    2.80987   2.82049   2.84610   2.88317   2.88551
 Alpha virt. eigenvalues --    2.97658   3.05601   3.09486   3.14340   3.15428
 Alpha virt. eigenvalues --    3.15498   3.19126   3.19643   3.24317   3.27419
 Alpha virt. eigenvalues --    3.27896   3.30454   3.34768   3.34793   3.38002
 Alpha virt. eigenvalues --    3.41123   3.41243   3.42132   3.44769   3.47422
 Alpha virt. eigenvalues --    3.48847   3.48917   3.56445   3.57260   3.58777
 Alpha virt. eigenvalues --    3.62496   3.63623   3.65787   3.68804   3.74450
 Alpha virt. eigenvalues --    3.76948   3.81382   3.84016   3.85350   3.85823
 Alpha virt. eigenvalues --    3.88116   3.89494   3.91103   3.91820   3.94565
 Alpha virt. eigenvalues --    3.95301   3.98145   4.04075   4.06212   4.11401
 Alpha virt. eigenvalues --    4.13632   4.14111   4.21354   4.21550   4.25992
 Alpha virt. eigenvalues --    4.32965   4.45379   4.64207   4.64538   4.67845
 Alpha virt. eigenvalues --    4.81840   4.89707   4.94790   5.03554   5.27185
 Alpha virt. eigenvalues --    5.67893   9.64420
          Condensed to atoms (all electrons):
               1          2          3          4          5          6
     1  Si  12.186859   0.405518   0.403255   0.403255  -0.045340  -0.027366
     2  H    0.405518   0.691610  -0.014873  -0.014873  -0.004424   0.002482
     3  H    0.403255  -0.014873   0.705721  -0.021582   0.000082  -0.000628
     4  H    0.403255  -0.014873  -0.021582   0.705721   0.000082  -0.000628
     5  Si  -0.045340  -0.004424   0.000082   0.000082  12.452030  -0.040423
     6  H   -0.027366   0.002482  -0.000628  -0.000628  -0.040423   0.553115
     7  H   -0.003077   0.001052   0.000011   0.000011   0.398654   0.002531
     8  H    0.003080   0.000031  -0.000051  -0.000051   0.392814  -0.002644
     9  C    0.453479  -0.016016  -0.019694  -0.019694   0.658636   0.379621
               7          8          9
     1  Si  -0.003077   0.003080   0.453479
     2  H    0.001052   0.000031  -0.016016
     3  H    0.000011  -0.000051  -0.019694
     4  H    0.000011  -0.000051  -0.019694
     5  Si   0.398654   0.392814   0.658636
     6  H    0.002531  -0.002644   0.379621
     7  H    0.633297  -0.019952  -0.016035
     8  H   -0.019952   0.645804  -0.013617
     9  C   -0.016035  -0.013617   4.978591
 Mulliken charges:
               1
     1  Si   0.220335
     2  H   -0.050507
     3  H   -0.052240
     4  H   -0.052240
     5  Si   0.187890
     6  H    0.133940
     7  H    0.003508
     8  H   -0.005414
     9  C   -0.385271
 Sum of Mulliken charges =  -0.00000
 Mulliken charges with hydrogens summed into heavy atoms:
               1
     1  Si   0.065348
     5  Si   0.185983
     9  C   -0.251331
 Electronic spatial extent (au):  <R**2>=            470.7063
 Charge=              0.0000 electrons
 Dipole moment (field-independent basis, Debye):
    X=             -1.6480    Y=              0.2919    Z=              0.0000  Tot=              1.6737
 Quadrupole moment (field-independent basis, Debye-Ang):
   XX=            -34.9837   YY=            -35.5940   ZZ=            -37.2394
   XY=              0.6274   XZ=             -0.0000   YZ=              0.0000
 Traceless Quadrupole moment (field-independent basis, Debye-Ang):
   XX=              0.9553   YY=              0.3450   ZZ=             -1.3003
   XY=              0.6274   XZ=             -0.0000   YZ=              0.0000
 Octapole moment (field-independent basis, Debye-Ang**2):
  XXX=            -10.5178  YYY=              6.4195  ZZZ=              0.0000  XYY=              0.1135
  XXY=             -0.0567  XXZ=             -0.0000  XZZ=             -4.0990  YZZ=             -0.7801
  YYZ=             -0.0000  XYZ=              0.0000
 Hexadecapole moment (field-independent basis, Debye-Ang**3):
 XXXX=           -564.5927 YYYY=           -128.2560 ZZZZ=            -76.2559 XXXY=             35.5843
 XXXZ=             -0.0000 YYYX=             37.8724 YYYZ=             -0.0000 ZZZX=             -0.0000
 ZZZY=              0.0000 XXYY=           -114.8608 XXZZ=           -108.6849 YYZZ=            -35.4348
 XXYZ=              0.0000 YYXZ=             -0.0000 ZZXY=             12.4687
 N-N= 1.343152021568D+02 E-N=-1.742969370719D+03  KE= 6.185160977480D+02
 Symmetry A'   KE= 5.663003429763D+02
 Symmetry A"   KE= 5.221575477168D+01
 1\1\GINC-CN0921\FOpt\RB3LYP\CC-pVTZ\C1H6Si2\U49BYC00\29-Dec-2022\0\\# 
 b3lyp/cc-pvtz opt freq\\Title Card Required\\0,1\Si,1.5555230564,-0.12
 32832789,0.\H,1.3968992628,-1.60130459,0.\H,2.3529986149,0.2604574412,
 1.1965972902\H,2.3529986149,0.2604574412,-1.1965972902\Si,-1.605549960
 5,-0.1428173218,0.\H,-0.1436507697,1.7691218605,0.\H,-1.6957850441,-1.
 6155140545,0.\H,-2.9170535614,0.5380567638,0.\C,-0.1095332534,0.683981
 6286,0.\\Version=ES64L-G16RevB.01\State=1-A'\HF=-620.7258936\RMSD=4.94
 3e-09\RMSF=2.925e-05\Dipole=-0.6583879,0.0111798,0.\Quadrupole=0.55372
 05,0.4130395,-0.96676,0.5138821,0.,0.\PG=CS [SG(C1H4Si2),X(H2)]\\@


 Luck is a matter of preparation meeting opportunity.
                                    -- Oprah Winfrey
 Job cpu time:       0 days  0 hours  2 minutes 12.2 seconds.
 Elapsed time:       0 days  0 hours  0 minutes 18.2 seconds.
 File lengths (MBytes):  RWF=     19 Int=      0 D2E=      0 Chk=      4 Scr=      1
 Normal termination of Gaussian 16 at Thu Dec 29 19:15:24 2022.
 Link1:  Proceeding to internal job step number  2.
 -------------------------------------------------------------------
 #N Geom=AllCheck Guess=TCheck SCRF=Check GenChk RB3LYP/CC-pVTZ Freq
 -------------------------------------------------------------------
 1/10=4,29=7,30=1,38=1,40=1/1,3;
 2/12=2,40=1/2;
 3/5=16,6=1,11=2,14=-4,25=1,30=1,70=2,71=2,74=-5,116=1,140=1/1,2,3;
 4/5=101/1;
 5/5=2,38=6,98=1/2;
 8/6=4,10=90,11=11/1;
 11/6=1,8=1,9=11,15=111,16=1/1,2,10;
 10/6=1/2;
 6/7=2,8=2,9=2,10=2,28=1/1;
 7/8=1,10=1,25=1/1,2,3,16;
 1/10=4,30=1/3;
 99//99;
 Structure from the checkpoint file:  "pi1-Cs-s-opt-a1.chk"
 -------------------
 Title Card Required
 -------------------
 Charge =  0 Multiplicity = 1
 Redundant internal coordinates found in file.  (old form).
 Si,0,1.5555230564,-0.1232832789,0.
 H,0,1.3968992628,-1.60130459,0.
 H,0,2.3529986149,0.2604574412,1.1965972902
 H,0,2.3529986149,0.2604574412,-1.1965972902
 Si,0,-1.6055499605,-0.1428173218,0.
 H,0,-0.1436507697,1.7691218605,0.
 H,0,-1.6957850441,-1.6155140545,0.
 H,0,-2.9170535614,0.5380567638,0.
 C,0,-0.1095332534,0.6839816286,0.
 Recover connectivity data from disk.

 GradGradGradGradGradGradGradGradGradGradGradGradGradGradGradGradGradGrad
 Berny optimization.
 Initialization pass.
                           ----------------------------
                           !    Initial Parameters    !
                           ! (Angstroms and Degrees)  !
 --------------------------                            --------------------------
 ! Name  Definition              Value          Derivative Info.                !
 --------------------------------------------------------------------------------
 ! R1    R(1,2)                  1.4865         calculate D2E/DX2 analytically  !
 ! R2    R(1,3)                  1.4883         calculate D2E/DX2 analytically  !
 ! R3    R(1,4)                  1.4883         calculate D2E/DX2 analytically  !
 ! R4    R(1,9)                  1.8504         calculate D2E/DX2 analytically  !
 ! R5    R(5,7)                  1.4755         calculate D2E/DX2 analytically  !
 ! R6    R(5,8)                  1.4777         calculate D2E/DX2 analytically  !
 ! R7    R(5,9)                  1.7093         calculate D2E/DX2 analytically  !
 ! R8    R(6,9)                  1.0857         calculate D2E/DX2 analytically  !
 ! A1    A(2,1,3)              108.2728         calculate D2E/DX2 analytically  !
 ! A2    A(2,1,4)              108.2728         calculate D2E/DX2 analytically  !
 ! A3    A(2,1,9)              109.7397         calculate D2E/DX2 analytically  !
 ! A4    A(3,1,4)              107.027          calculate D2E/DX2 analytically  !
 ! A5    A(3,1,9)              111.6949         calculate D2E/DX2 analytically  !
 ! A6    A(4,1,9)              111.6949         calculate D2E/DX2 analytically  !
 ! A7    A(7,5,8)              113.9301         calculate D2E/DX2 analytically  !
 ! A8    A(7,5,9)              122.4342         calculate D2E/DX2 analytically  !
 ! A9    A(8,5,9)              123.6357         calculate D2E/DX2 analytically  !
 ! A10   A(1,9,5)              125.2066         calculate D2E/DX2 analytically  !
 ! A11   A(1,9,6)              117.6662         calculate D2E/DX2 analytically  !
 ! A12   A(5,9,6)              117.1272         calculate D2E/DX2 analytically  !
 ! D1    D(2,1,9,5)              0.0            calculate D2E/DX2 analytically  !
 ! D2    D(2,1,9,6)            180.0            calculate D2E/DX2 analytically  !
 ! D3    D(3,1,9,5)           -120.0842         calculate D2E/DX2 analytically  !
 ! D4    D(3,1,9,6)             59.9158         calculate D2E/DX2 analytically  !
 ! D5    D(4,1,9,5)            120.0842         calculate D2E/DX2 analytically  !
 ! D6    D(4,1,9,6)            -59.9158         calculate D2E/DX2 analytically  !
 ! D7    D(7,5,9,1)              0.0            calculate D2E/DX2 analytically  !
 ! D8    D(7,5,9,6)            180.0            calculate D2E/DX2 analytically  !
 ! D9    D(8,5,9,1)            180.0            calculate D2E/DX2 analytically  !
 ! D10   D(8,5,9,6)              0.0            calculate D2E/DX2 analytically  !
 --------------------------------------------------------------------------------
 Trust Radius=3.00D-01 FncErr=1.00D-07 GrdErr=1.00D-07 EigMax=2.50D+02 EigMin=1.00D-04
 Number of steps in this run=      2 maximum allowed number of steps=      2.
 GradGradGradGradGradGradGradGradGradGradGradGradGradGradGradGradGradGrad

                          Input orientation:                          
 ---------------------------------------------------------------------
 Center     Atomic      Atomic             Coordinates (Angstroms)
 Number     Number       Type             X           Y           Z
 ---------------------------------------------------------------------
      1         14           0        1.555523   -0.123283    0.000000
      2          1           0        1.396899   -1.601305    0.000000
      3          1           0        2.352999    0.260457    1.196597
      4          1           0        2.352999    0.260457   -1.196597
      5         14           0       -1.605550   -0.142817    0.000000
      6          1           0       -0.143651    1.769122    0.000000
      7          1           0       -1.695785   -1.615514    0.000000
      8          1           0       -2.917054    0.538057    0.000000
      9          6           0       -0.109533    0.683982    0.000000
 ---------------------------------------------------------------------
                    Distance matrix (angstroms):
                    1          2          3          4          5
     1  Si   0.000000
     2  H    1.486509   0.000000
     3  H    1.488311   2.410836   0.000000
     4  H    1.488311   2.410836   2.393195   0.000000
     5  Si   3.161133   3.337946   4.155067   4.155067   0.000000
     6  H    2.543303   3.705816   3.152962   3.152962   2.406795
     7  H    3.577395   3.092717   4.619931   4.619931   1.475459
     8  H    4.521207   4.815294   5.411317   5.411317   1.477711
     9  C    1.850429   2.737128   2.770430   2.770430   1.709287
                    6          7          8          9
     6  H    0.000000
     7  H    3.723558   0.000000
     8  H    3.034351   2.475755   0.000000
     9  C    1.085676   2.793542   2.811310   0.000000
 Stoichiometry    CH6Si2
 Framework group  CS[SG(CH4Si2),X(H2)]
 Deg. of freedom    14
 Full point group                 CS      NOp   2
 Largest Abelian subgroup         CS      NOp   2
 Largest concise Abelian subgroup CS      NOp   2
                         Standard orientation:                         
 ---------------------------------------------------------------------
 Center     Atomic      Atomic             Coordinates (Angstroms)
 Number     Number       Type             X           Y           Z
 ---------------------------------------------------------------------
      1         14           0        1.516942   -0.366800    0.000000
      2          1           0        1.127255   -1.801322    0.000000
      3          1           0        2.364949   -0.113601    1.196597
      4          1           0        2.364949   -0.113601   -1.196597
      5         14           0       -1.607669    0.112334    0.000000
      6          1           0        0.137409    1.769851    0.000000
      7          1           0       -1.928983   -1.327713    0.000000
      8          1           0       -2.795410    0.991482    0.000000
      9          6           0       -0.000000    0.692905    0.000000
 ---------------------------------------------------------------------
 Rotational constants (GHZ):          27.6293615           3.0182778           2.8083055
 Standard basis: CC-pVTZ (5D, 7F)
 There are   137 symmetry adapted cartesian basis functions of A'  symmetry.
 There are    66 symmetry adapted cartesian basis functions of A"  symmetry.
 There are   120 symmetry adapted basis functions of A'  symmetry.
 There are    62 symmetry adapted basis functions of A"  symmetry.
   182 basis functions,   344 primitive gaussians,   203 cartesian basis functions
    20 alpha electrons       20 beta electrons
       nuclear repulsion energy       134.3152021568 Hartrees.
 NAtoms=    9 NActive=    9 NUniq=    8 SFac= 1.27D+00 NAtFMM=   60 NAOKFM=F Big=F
 Integral buffers will be    131072 words long.
 Raffenetti 2 integral format.
 Two-electron integral symmetry is turned on.
 One-electron integrals computed using PRISM.
 NBasis=   182 RedAO= T EigKep=  1.50D-03  NBF=   120    62
 NBsUse=   182 1.00D-06 EigRej= -1.00D+00 NBFU=   120    62
 Initial guess from the checkpoint file:  "pi1-Cs-s-opt-a1.chk"
 B after Tr=    -0.000000    0.000000    0.000000
         Rot=    1.000000   -0.000000    0.000000   -0.000000 Ang=   0.00 deg.
 Initial guess orbital symmetries:
       Occupied  (A') (A') (A') (A') (A') (A") (A') (A') (A') (A")
                 (A') (A') (A') (A') (A') (A') (A") (A') (A') (A")
       Virtual   (A") (A') (A') (A') (A') (A") (A') (A') (A') (A')
                 (A') (A") (A") (A') (A") (A') (A') (A') (A") (A")
                 (A') (A') (A") (A') (A') (A') (A") (A') (A') (A')
                 (A') (A') (A") (A') (A') (A') (A') (A") (A") (A")
                 (A') (A") (A") (A") (A') (A') (A') (A') (A") (A")
                 (A') (A') (A') (A") (A') (A") (A') (A") (A') (A')
                 (A') (A") (A') (A") (A') (A') (A") (A') (A') (A")
                 (A") (A') (A') (A') (A') (A") (A') (A') (A") (A')
                 (A") (A') (A') (A') (A") (A") (A') (A') (A") (A')
                 (A') (A') (A') (A') (A") (A') (A") (A') (A") (A')
                 (A') (A") (A') (A") (A') (A") (A') (A") (A') (A")
                 (A') (A') (A') (A") (A') (A") (A') (A') (A") (A')
                 (A') (A") (A") (A") (A') (A') (A') (A") (A") (A')
                 (A") (A') (A') (A") (A') (A') (A") (A') (A") (A")
                 (A') (A") (A') (A') (A') (A") (A') (A") (A') (A')
                 (A') (A') (A") (A') (A') (A") (A') (A') (A') (A')
                 (A') (A')
 Keep R1 ints in memory in symmetry-blocked form, NReq=208831501.
 Requested convergence on RMS density matrix=1.00D-08 within 128 cycles.
 Requested convergence on MAX density matrix=1.00D-06.
 Requested convergence on             energy=1.00D-06.
 No special actions if energy rises.
 SCF Done:  E(RB3LYP) =  -620.725893635     A.U. after    1 cycles
            NFock=  1  Conv=0.14D-08     -V/T= 2.0036
 DoSCS=F DFT=T ScalE2(SS,OS)=  1.000000  1.000000
 Range of M.O.s used for correlation:     1   182
 NBasis=   182 NAE=    20 NBE=    20 NFC=     0 NFV=     0
 NROrb=    182 NOA=    20 NOB=    20 NVA=   162 NVB=   162

 **** Warning!!: The largest alpha MO coefficient is  0.12020339D+02

 Symmetrizing basis deriv contribution to polar:
 IMax=3 JMax=2 DiffMx= 0.00D+00
 G2DrvN: will do    10 centers at a time, making    1 passes.
 Calling FoFCou, ICntrl=  3107 FMM=F I1Cent=   0 AccDes= 0.00D+00.
 End of G2Drv F.D. properties file   721 does not exist.
 End of G2Drv F.D. properties file   722 does not exist.
 End of G2Drv F.D. properties file   788 does not exist.
          IDoAtm=111111111
          Differentiating once with respect to electric field.
                with respect to dipole field.
          Differentiating once with respect to nuclear coordinates.
 Keep R1 ints in memory in symmetry-blocked form, NReq=208835671.
          There are    27 degrees of freedom in the 1st order CPHF.  IDoFFX=4 NUNeed=    27.
     27 vectors produced by pass  0 Test12= 1.20D-14 3.70D-09 XBig12= 1.42D+02 9.68D+00.
 AX will form    27 AO Fock derivatives at one time.
     27 vectors produced by pass  1 Test12= 1.20D-14 3.70D-09 XBig12= 1.84D+01 1.07D+00.
     27 vectors produced by pass  2 Test12= 1.20D-14 3.70D-09 XBig12= 5.88D-01 1.35D-01.
     27 vectors produced by pass  3 Test12= 1.20D-14 3.70D-09 XBig12= 1.66D-03 8.29D-03.
     27 vectors produced by pass  4 Test12= 1.20D-14 3.70D-09 XBig12= 2.72D-06 3.20D-04.
     16 vectors produced by pass  5 Test12= 1.20D-14 3.70D-09 XBig12= 2.71D-09 9.19D-06.
      3 vectors produced by pass  6 Test12= 1.20D-14 3.70D-09 XBig12= 2.46D-12 2.75D-07.
      1 vectors produced by pass  7 Test12= 1.20D-14 3.70D-09 XBig12= 1.73D-15 9.63D-09.
 InvSVY:  IOpt=1 It=  1 EMax= 3.55D-15
 Solved reduced A of dimension   155 with    27 vectors.
 Isotropic polarizability for W=    0.000000       71.06 Bohr**3.
 End of Minotr F.D. properties file   721 does not exist.
 End of Minotr F.D. properties file   722 does not exist.
 End of Minotr F.D. properties file   788 does not exist.

 **********************************************************************

            Population analysis using the SCF Density.

 **********************************************************************

 Orbital symmetries:
       Occupied  (A') (A') (A') (A') (A') (A") (A') (A') (A') (A")
                 (A') (A') (A') (A') (A') (A') (A") (A') (A') (A")
       Virtual   (A") (A') (A') (A') (A') (A") (A') (A') (A') (A')
                 (A') (A") (A") (A') (A") (A') (A') (A') (A") (A")
                 (A') (A') (A") (A') (A') (A') (A") (A') (A') (A')
                 (A') (A') (A") (A') (A') (A') (A') (A") (A") (A")
                 (A') (A") (A") (A") (A') (A') (A') (A') (A") (A")
                 (A') (A') (A') (A") (A') (A") (A') (A") (A') (A')
                 (A') (A") (A') (A") (A') (A') (A") (A') (A') (A")
                 (A") (A') (A') (A') (A') (A") (A') (A') (A") (A')
                 (A") (A') (A') (A') (A") (A") (A') (A') (A") (A')
                 (A') (A') (A') (A') (A") (A') (A") (A') (A") (A')
                 (A') (A") (A') (A") (A') (A") (A') (A") (A') (A")
                 (A') (A') (A') (A") (A') (A") (A') (A') (A") (A')
                 (A') (A") (A") (A") (A') (A') (A') (A") (A") (A')
                 (A") (A') (A') (A") (A') (A') (A") (A') (A") (A")
                 (A') (A") (A') (A') (A') (A") (A') (A") (A') (A')
                 (A') (A') (A") (A') (A') (A") (A') (A') (A') (A')
                 (A') (A')
 The electronic state is 1-A'.
 Alpha  occ. eigenvalues --  -66.14518 -66.12352 -10.16598  -5.29315  -5.26896
 Alpha  occ. eigenvalues --   -3.65430  -3.65035  -3.64860  -3.62743  -3.62715
 Alpha  occ. eigenvalues --   -3.62705  -0.68117  -0.53413  -0.50213  -0.40579
 Alpha  occ. eigenvalues --   -0.36817  -0.34486  -0.33673  -0.32752  -0.24305
 Alpha virt. eigenvalues --   -0.06470   0.01401   0.02475   0.05621   0.05969
 Alpha virt. eigenvalues --    0.06543   0.07052   0.08636   0.11038   0.13965
 Alpha virt. eigenvalues --    0.17549   0.18856   0.19825   0.20332   0.21677
 Alpha virt. eigenvalues --    0.22456   0.24772   0.26068   0.27161   0.31006
 Alpha virt. eigenvalues --    0.31865   0.32929   0.33397   0.35085   0.37127
 Alpha virt. eigenvalues --    0.40085   0.41000   0.45640   0.47621   0.48946
 Alpha virt. eigenvalues --    0.52102   0.56415   0.58699   0.60879   0.62724
 Alpha virt. eigenvalues --    0.63344   0.64623   0.66578   0.68236   0.75980
 Alpha virt. eigenvalues --    0.79438   0.80504   0.82591   0.85415   0.86948
 Alpha virt. eigenvalues --    0.87682   0.88570   0.94043   0.94431   0.95504
 Alpha virt. eigenvalues --    0.96765   0.99576   1.02052   1.02541   1.03267
 Alpha virt. eigenvalues --    1.04867   1.10634   1.13727   1.15724   1.16921
 Alpha virt. eigenvalues --    1.19897   1.21255   1.23296   1.26338   1.27905
 Alpha virt. eigenvalues --    1.29513   1.31067   1.32005   1.34996   1.35696
 Alpha virt. eigenvalues --    1.39290   1.39599   1.43008   1.45379   1.49797
 Alpha virt. eigenvalues --    1.50489   1.52183   1.52444   1.54111   1.54980
 Alpha virt. eigenvalues --    1.61036   1.63691   1.69941   1.86099   2.14053
 Alpha virt. eigenvalues --    2.26467   2.29913   2.31665   2.32887   2.34176
 Alpha virt. eigenvalues --    2.47082   2.49739   2.53370   2.63280   2.78612
 Alpha virt. eigenvalues --    2.80987   2.82049   2.84610   2.88317   2.88551
 Alpha virt. eigenvalues --    2.97658   3.05601   3.09486   3.14340   3.15428
 Alpha virt. eigenvalues --    3.15498   3.19126   3.19643   3.24317   3.27419
 Alpha virt. eigenvalues --    3.27896   3.30454   3.34768   3.34793   3.38002
 Alpha virt. eigenvalues --    3.41123   3.41243   3.42132   3.44769   3.47422
 Alpha virt. eigenvalues --    3.48847   3.48917   3.56445   3.57260   3.58777
 Alpha virt. eigenvalues --    3.62496   3.63623   3.65787   3.68804   3.74450
 Alpha virt. eigenvalues --    3.76948   3.81382   3.84016   3.85350   3.85823
 Alpha virt. eigenvalues --    3.88116   3.89494   3.91103   3.91820   3.94565
 Alpha virt. eigenvalues --    3.95301   3.98145   4.04075   4.06212   4.11401
 Alpha virt. eigenvalues --    4.13632   4.14111   4.21354   4.21550   4.25992
 Alpha virt. eigenvalues --    4.32965   4.45379   4.64207   4.64538   4.67845
 Alpha virt. eigenvalues --    4.81840   4.89707   4.94790   5.03554   5.27185
 Alpha virt. eigenvalues --    5.67893   9.64420
          Condensed to atoms (all electrons):
               1          2          3          4          5          6
     1  Si  12.186859   0.405518   0.403255   0.403255  -0.045340  -0.027366
     2  H    0.405518   0.691610  -0.014873  -0.014873  -0.004424   0.002482
     3  H    0.403255  -0.014873   0.705721  -0.021582   0.000082  -0.000628
     4  H    0.403255  -0.014873  -0.021582   0.705721   0.000082  -0.000628
     5  Si  -0.045340  -0.004424   0.000082   0.000082  12.452030  -0.040423
     6  H   -0.027366   0.002482  -0.000628  -0.000628  -0.040423   0.553115
     7  H   -0.003077   0.001052   0.000011   0.000011   0.398654   0.002531
     8  H    0.003080   0.000031  -0.000051  -0.000051   0.392814  -0.002644
     9  C    0.453479  -0.016016  -0.019694  -0.019694   0.658636   0.379621
               7          8          9
     1  Si  -0.003077   0.003080   0.453479
     2  H    0.001052   0.000031  -0.016016
     3  H    0.000011  -0.000051  -0.019694
     4  H    0.000011  -0.000051  -0.019694
     5  Si   0.398654   0.392814   0.658636
     6  H    0.002531  -0.002644   0.379621
     7  H    0.633297  -0.019952  -0.016035
     8  H   -0.019952   0.645804  -0.013617
     9  C   -0.016035  -0.013617   4.978591
 Mulliken charges:
               1
     1  Si   0.220335
     2  H   -0.050507
     3  H   -0.052240
     4  H   -0.052240
     5  Si   0.187889
     6  H    0.133940
     7  H    0.003508
     8  H   -0.005414
     9  C   -0.385271
 Sum of Mulliken charges =   0.00000
 Mulliken charges with hydrogens summed into heavy atoms:
               1
     1  Si   0.065348
     5  Si   0.185983
     9  C   -0.251331
 APT charges:
               1
     1  Si   1.138474
     2  H   -0.254287
     3  H   -0.288374
     4  H   -0.288374
     5  Si   0.610611
     6  H    0.045975
     7  H   -0.149671
     8  H   -0.163129
     9  C   -0.651226
 Sum of APT charges =   0.00000
 APT charges with hydrogens summed into heavy atoms:
               1
     1  Si   0.307440
     5  Si   0.297811
     9  C   -0.605251
 Electronic spatial extent (au):  <R**2>=            470.7063
 Charge=              0.0000 electrons
 Dipole moment (field-independent basis, Debye):
    X=             -1.6480    Y=              0.2919    Z=             -0.0000  Tot=              1.6737
 Quadrupole moment (field-independent basis, Debye-Ang):
   XX=            -34.9837   YY=            -35.5940   ZZ=            -37.2394
   XY=              0.6274   XZ=             -0.0000   YZ=              0.0000
 Traceless Quadrupole moment (field-independent basis, Debye-Ang):
   XX=              0.9553   YY=              0.3450   ZZ=             -1.3003
   XY=              0.6274   XZ=             -0.0000   YZ=              0.0000
 Octapole moment (field-independent basis, Debye-Ang**2):
  XXX=            -10.5178  YYY=              6.4195  ZZZ=              0.0000  XYY=              0.1135
  XXY=             -0.0567  XXZ=             -0.0000  XZZ=             -4.0990  YZZ=             -0.7801
  YYZ=              0.0000  XYZ=              0.0000
 Hexadecapole moment (field-independent basis, Debye-Ang**3):
 XXXX=           -564.5927 YYYY=           -128.2560 ZZZZ=            -76.2559 XXXY=             35.5843
 XXXZ=             -0.0000 YYYX=             37.8724 YYYZ=             -0.0000 ZZZX=              0.0000
 ZZZY=             -0.0000 XXYY=           -114.8607 XXZZ=           -108.6849 YYZZ=            -35.4348
 XXYZ=             -0.0000 YYXZ=              0.0000 ZZXY=             12.4687
 N-N= 1.343152021568D+02 E-N=-1.742969376344D+03  KE= 6.185160998917D+02
 Symmetry A'   KE= 5.663003446442D+02
 Symmetry A"   KE= 5.221575524755D+01
  Exact polarizability:  98.799   0.002  60.598  -0.000  -0.000  53.794
 Approx polarizability: 146.754  10.852  90.718  -0.000   0.000  81.393
 Calling FoFJK, ICntrl=    100127 FMM=F ISym2X=1 I1Cent= 0 IOpClX= 0 NMat=1 NMatS=1 NMatT=0.
 Full mass-weighted force constant matrix:
 Low frequencies ---   -8.2913   -3.7809   -3.0637    0.0030    0.0049    0.0051
 Low frequencies ---  147.8389  176.3248  306.9438
 Diagonal vibrational polarizability:
       15.0540117       7.3288217       8.7508827
 Harmonic frequencies (cm**-1), IR intensities (KM/Mole), Raman scattering
 activities (A**4/AMU), depolarization ratios for plane and unpolarized
 incident light, reduced masses (AMU), force constants (mDyne/A),
 and normal coordinates:
                      1                      2                      3
                     A"                     A'                     A"
 Frequencies --    147.8386               176.3248               306.9437
 Red. masses --      1.2328                 3.0121                 1.2130
 Frc consts  --      0.0159                 0.0552                 0.0673
 IR Inten    --      0.3345                 0.0073                 5.0226
  Atom  AN      X      Y      Z        X      Y      Z        X      Y      Z
     1  14    -0.00  -0.00  -0.01     0.16   0.01  -0.00     0.00  -0.00   0.01
     2   1    -0.00   0.00   0.49     0.51  -0.08   0.00     0.00  -0.00   0.17
     3   1     0.33   0.35  -0.32     0.09   0.23  -0.00    -0.14   0.18   0.07
     4   1    -0.33  -0.35  -0.32     0.09   0.23   0.00     0.14  -0.18   0.07
     5  14     0.00  -0.00  -0.04    -0.15   0.06  -0.00     0.00   0.00   0.02
     6   1    -0.00   0.00   0.21    -0.03  -0.23   0.00     0.00  -0.00   0.28
     7   1     0.00  -0.00  -0.18    -0.53   0.15  -0.00     0.00  -0.00  -0.61
     8   1    -0.00  -0.00  -0.02     0.08   0.38   0.00     0.00   0.00   0.62
     9   6     0.00   0.00   0.13    -0.03  -0.24   0.00    -0.00  -0.00  -0.13
                      4                      5                      6
                     A"                     A'                     A'
 Frequencies --    514.1120               556.5128               591.7882
 Red. masses --      1.1888                 1.5197                 1.4581
 Frc consts  --      0.1851                 0.2773                 0.3009
 IR Inten    --     16.6168                 4.7754                11.0030
  Atom  AN      X      Y      Z        X      Y      Z        X      Y      Z
     1  14    -0.00  -0.00  -0.01     0.07  -0.06   0.00    -0.09  -0.01   0.00
     2   1     0.00  -0.00   0.03     0.20  -0.09  -0.00     0.58  -0.18  -0.00
     3   1    -0.08   0.05   0.04     0.04   0.04  -0.00    -0.20   0.44  -0.01
     4   1     0.08  -0.05   0.04     0.04   0.04   0.00    -0.20   0.44   0.01
     5  14    -0.00   0.00  -0.07    -0.08   0.04   0.00     0.06   0.03   0.00
     6   1     0.00  -0.00  -0.09     0.18   0.06   0.00     0.28  -0.13   0.00
     7   1     0.00  -0.00   0.59     0.59  -0.11  -0.00     0.21  -0.00  -0.00
     8   1    -0.00  -0.00   0.78    -0.50  -0.53  -0.00    -0.01  -0.07  -0.00
     9   6     0.00   0.00   0.06    -0.03   0.08  -0.00     0.02  -0.09  -0.00
                      7                      8                      9
                     A"                     A"                     A'
 Frequencies --    664.3219               763.6890               790.5758
 Red. masses --      1.1421                 1.1664                 2.0936
 Frc consts  --      0.2970                 0.4008                 0.7709
 IR Inten    --     17.2524                49.0527                94.7170
  Atom  AN      X      Y      Z        X      Y      Z        X      Y      Z
     1  14    -0.00   0.00   0.06    -0.00   0.00   0.03     0.02  -0.09   0.00
     2   1    -0.00   0.00  -0.17    -0.00   0.00  -0.14     0.55  -0.22  -0.00
     3   1     0.47  -0.33  -0.21     0.16  -0.04  -0.09    -0.04   0.24  -0.02
     4   1    -0.47   0.33  -0.21    -0.16   0.04  -0.09    -0.04   0.24   0.02
     5  14    -0.00  -0.00  -0.01    -0.00   0.00  -0.01    -0.00  -0.06  -0.00
     6   1     0.00   0.00  -0.32     0.00  -0.00   0.84    -0.14   0.27   0.00
     7   1    -0.00   0.00  -0.17     0.00  -0.00   0.43    -0.47   0.05   0.00
     8   1     0.00   0.00   0.30     0.00   0.00  -0.08     0.23   0.27  -0.00
     9   6     0.00   0.00  -0.06     0.00  -0.00  -0.11    -0.06   0.26  -0.00
                     10                     11                     12
                     A'                     A"                     A'
 Frequencies --    939.8755               946.8815               954.4204
 Red. masses --      1.0848                 1.0387                 1.1454
 Frc consts  --      0.5646                 0.5487                 0.6147
 IR Inten    --    326.1127                38.3954                23.2806
  Atom  AN      X      Y      Z        X      Y      Z        X      Y      Z
     1  14    -0.03   0.03   0.00    -0.00   0.00  -0.03     0.03  -0.02  -0.00
     2   1     0.53  -0.13  -0.00     0.00  -0.00   0.77    -0.12   0.02   0.00
     3   1     0.25  -0.40  -0.09    -0.03  -0.44   0.10    -0.22   0.09   0.15
     4   1     0.25  -0.40   0.09     0.03   0.44   0.10    -0.22   0.09  -0.15
     5  14    -0.02  -0.01   0.00     0.00   0.00  -0.00     0.01   0.01   0.00
     6   1     0.12  -0.01  -0.00     0.00  -0.00   0.10    -0.45   0.03   0.00
     7   1     0.33  -0.08  -0.00    -0.00   0.00   0.04     0.60  -0.11   0.00
     8   1     0.20   0.28  -0.00    -0.00  -0.00  -0.00     0.30   0.40  -0.00
     9   6    -0.01   0.01   0.00     0.00  -0.00  -0.01    -0.09  -0.02  -0.00
                     13                     14                     15
[...]
 Rotational constants (GHZ):          27.62936     3.01828     2.80831
 Zero-point vibrational energy     147984.3 (Joules/Mol)
                                   35.36909 (Kcal/Mol)
 Warning -- explicit consideration of   6 degrees of freedom as
           vibrations may cause significant error
 Vibrational temperatures:    212.71   253.69   441.62   739.69   800.70
          (Kelvin)            851.45   955.81  1098.78  1137.46  1352.27
                             1362.35  1373.20  1388.29  1412.35  1675.10
                             3154.03  3164.68  3179.71  3241.03  3280.12
                             4521.78
 
 Zero-point correction=                           0.056364 (Hartree/Particle)
 Thermal correction to Energy=                    0.061954
 Thermal correction to Enthalpy=                  0.062899
 Thermal correction to Gibbs Free Energy=         0.028200
 Sum of electronic and zero-point Energies=           -620.669529
 Sum of electronic and thermal Energies=              -620.663939
 Sum of electronic and thermal Enthalpies=            -620.662995
 Sum of electronic and thermal Free Energies=         -620.697693
 
                     E (Thermal)             CV                S
                      KCal/Mol        Cal/Mol-Kelvin    Cal/Mol-Kelvin
 Total                   38.877             19.456             73.028
 Electronic               0.000              0.000              0.000
 Translational            0.889              2.981             38.821
 Rotational               0.889              2.981             24.732
 Vibrational             37.099             13.495              9.476
 Vibration     1          0.617              1.905              2.700
 Vibration     2          0.628              1.872              2.367
 Vibration     3          0.697              1.661              1.379
 Vibration     4          0.869              1.219              0.624
 Vibration     5          0.912              1.125              0.531
 Vibration     6          0.949              1.049              0.464
                       Q            Log10(Q)             Ln(Q)
 Total Bot       0.106843D-12        -12.971255        -29.867418
 Total V=0       0.900467D+13         12.954468         29.828765
 Vib (Bot)       0.752932D-25        -25.123244        -57.848408
 Vib (Bot)    1  0.137240D+01          0.137482          0.316564
 Vib (Bot)    2  0.114052D+01          0.057105          0.131488
 Vib (Bot)    3  0.617138D+00         -0.209617         -0.482662
 Vib (Bot)    4  0.315657D+00         -0.500784         -1.153098
 Vib (Bot)    5  0.280226D+00         -0.552491         -1.272157
 Vib (Bot)    6  0.254448D+00         -0.594401         -1.368660
 Vib (V=0)       0.634569D+01          0.802479          1.847775
 Vib (V=0)    1  0.196065D+01          0.292400          0.673275
 Vib (V=0)    2  0.174531D+01          0.241873          0.556932
 Vib (V=0)    3  0.129427D+01          0.112024          0.257944
 Vib (V=0)    4  0.109130D+01          0.037945          0.087373
 Vib (V=0)    5  0.107317D+01          0.030670          0.070619
 Vib (V=0)    6  0.106102D+01          0.025724          0.059231
 Electronic      0.100000D+01          0.000000          0.000000
 Translational   0.250212D+08          7.398309         17.035235
 Rotational      0.567128D+05          4.753681         10.945755
 ***** Axes restored to original set *****
 -------------------------------------------------------------------
 Center     Atomic                   Forces (Hartrees/Bohr)
 Number     Number              X              Y              Z
 -------------------------------------------------------------------
      1       14          -0.000082904   -0.000075957   -0.000000000
      2        1          -0.000023733    0.000021262    0.000000000
      3        1           0.000047191    0.000037719   -0.000023770
      4        1           0.000047191    0.000037719    0.000023770
      5       14          -0.000010195    0.000012850    0.000000000
      6        1           0.000012152   -0.000001854    0.000000000
      7        1           0.000004367   -0.000002695    0.000000000
      8        1          -0.000002033   -0.000008271   -0.000000000
      9        6           0.000007965   -0.000020773   -0.000000000
 -------------------------------------------------------------------
 Cartesian Forces:  Max     0.000082904 RMS     0.000029251
 FormGI is forming the generalized inverse of G from B-inverse, IUseBI=4.

 GradGradGradGradGradGradGradGradGradGradGradGradGradGradGradGradGradGrad
 Berny optimization.
 Internal  Forces:  Max     0.000084179 RMS     0.000025082
 Search for a local minimum.
 Step number   1 out of a maximum of    2
 All quantities printed in internal units (Hartrees-Bohrs-Radians)
 Second derivative matrix not updated -- analytic derivatives used.
 ITU=  0
     Eigenvalues ---    0.00224   0.00794   0.01789   0.02684   0.04972
     Eigenvalues ---    0.05256   0.05582   0.06517   0.08599   0.10524
     Eigenvalues ---    0.10635   0.11405   0.12326   0.17606   0.17857
     Eigenvalues ---    0.18273   0.18836   0.19100   0.21162   0.34798
     Eigenvalues ---    0.34959
 Angle between quadratic step and forces=  20.74 degrees.
 Linear search not attempted -- first point.
 Iteration  1 RMS(Cart)=  0.00047564 RMS(Int)=  0.00000016
 Iteration  2 RMS(Cart)=  0.00000018 RMS(Int)=  0.00000001
 ClnCor:  largest displacement from symmetrization is 8.52D-10 for atom     4.
 Variable       Old X    -DE/DX   Delta X   Delta X   Delta X     New X
                                 (Linear)    (Quad)   (Total)
    R1        2.80909  -0.00002   0.00000  -0.00014  -0.00014   2.80895
    R2        2.81250   0.00002   0.00000   0.00013   0.00013   2.81263
    R3        2.81250   0.00002   0.00000   0.00013   0.00013   2.81263
    R4        3.49680  -0.00002   0.00000  -0.00012  -0.00012   3.49669
    R5        2.78821   0.00000   0.00000   0.00001   0.00001   2.78823
    R6        2.79247  -0.00000   0.00000  -0.00002  -0.00002   2.79245
    R7        3.23008   0.00001   0.00000   0.00001   0.00001   3.23009
    R8        2.05163  -0.00000   0.00000  -0.00001  -0.00001   2.05162
    A1        1.88972   0.00003   0.00000   0.00054   0.00054   1.89026
    A2        1.88972   0.00003   0.00000   0.00054   0.00054   1.89026
    A3        1.91532  -0.00004   0.00000  -0.00022  -0.00022   1.91510
    A4        1.86797  -0.00008   0.00000  -0.00128  -0.00128   1.86669
    A5        1.94944   0.00003   0.00000   0.00021   0.00021   1.94966
    A6        1.94944   0.00003   0.00000   0.00021   0.00021   1.94966
    A7        1.98846  -0.00000   0.00000  -0.00003  -0.00003   1.98842
    A8        2.13688  -0.00002   0.00000  -0.00020  -0.00020   2.13668
    A9        2.15785   0.00002   0.00000   0.00023   0.00023   2.15808
   A10        2.18527   0.00000   0.00000  -0.00011  -0.00011   2.18516
   A11        2.05366  -0.00001   0.00000  -0.00013  -0.00013   2.05354
   A12        2.04425   0.00001   0.00000   0.00023   0.00023   2.04449
    D1        0.00000  -0.00000   0.00000  -0.00000   0.00000   0.00000
    D2        3.14159   0.00000   0.00000  -0.00000   0.00000   3.14159
    D3       -2.09587  -0.00003   0.00000  -0.00067  -0.00067  -2.09654
    D4        1.04573  -0.00003   0.00000  -0.00067  -0.00067   1.04506
    D5        2.09587   0.00003   0.00000   0.00067   0.00067   2.09654
    D6       -1.04573   0.00003   0.00000   0.00067   0.00067  -1.04506
    D7        0.00000   0.00000   0.00000   0.00000   0.00000   0.00000
    D8        3.14159  -0.00000   0.00000  -0.00000   0.00000   3.14159
    D9        3.14159   0.00000   0.00000   0.00000   0.00000   3.14159
   D10        0.00000   0.00000   0.00000   0.00000   0.00000   0.00000
         Item               Value     Threshold  Converged?
 Maximum Force            0.000084     0.000450     YES
 RMS     Force            0.000025     0.000300     YES
 Maximum Displacement     0.001387     0.001800     YES
 RMS     Displacement     0.000476     0.001200     YES
 Predicted change in Energy=-1.349092D-07
 Optimization completed.
    -- Stationary point found.
                           ----------------------------
                           !   Optimized Parameters   !
                           ! (Angstroms and Degrees)  !
 --------------------------                            --------------------------
 ! Name  Definition              Value          Derivative Info.                !
 --------------------------------------------------------------------------------
 ! R1    R(1,2)                  1.4865         -DE/DX =    0.0                 !
 ! R2    R(1,3)                  1.4883         -DE/DX =    0.0                 !
 ! R3    R(1,4)                  1.4883         -DE/DX =    0.0                 !
 ! R4    R(1,9)                  1.8504         -DE/DX =    0.0                 !
 ! R5    R(5,7)                  1.4755         -DE/DX =    0.0                 !
 ! R6    R(5,8)                  1.4777         -DE/DX =    0.0                 !
 ! R7    R(5,9)                  1.7093         -DE/DX =    0.0                 !
 ! R8    R(6,9)                  1.0857         -DE/DX =    0.0                 !
 ! A1    A(2,1,3)              108.2728         -DE/DX =    0.0                 !
 ! A2    A(2,1,4)              108.2728         -DE/DX =    0.0                 !
 ! A3    A(2,1,9)              109.7397         -DE/DX =    0.0                 !
 ! A4    A(3,1,4)              107.027          -DE/DX =   -0.0001              !
 ! A5    A(3,1,9)              111.6949         -DE/DX =    0.0                 !
 ! A6    A(4,1,9)              111.6949         -DE/DX =    0.0                 !
 ! A7    A(7,5,8)              113.9301         -DE/DX =    0.0                 !
 ! A8    A(7,5,9)              122.4342         -DE/DX =    0.0                 !
 ! A9    A(8,5,9)              123.6357         -DE/DX =    0.0                 !
 ! A10   A(1,9,5)              125.2066         -DE/DX =    0.0                 !
 ! A11   A(1,9,6)              117.6662         -DE/DX =    0.0                 !
 ! A12   A(5,9,6)              117.1272         -DE/DX =    0.0                 !
 ! D1    D(2,1,9,5)              0.0            -DE/DX =    0.0                 !
 ! D2    D(2,1,9,6)            180.0            -DE/DX =    0.0                 !
 ! D3    D(3,1,9,5)           -120.0842         -DE/DX =    0.0                 !
 ! D4    D(3,1,9,6)             59.9158         -DE/DX =    0.0                 !
 ! D5    D(4,1,9,5)            120.0842         -DE/DX =    0.0                 !
 ! D6    D(4,1,9,6)            -59.9158         -DE/DX =    0.0                 !
 ! D7    D(7,5,9,1)              0.0            -DE/DX =    0.0                 !
 ! D8    D(7,5,9,6)            180.0            -DE/DX =    0.0                 !
 ! D9    D(8,5,9,1)            180.0            -DE/DX =    0.0                 !
 ! D10   D(8,5,9,6)              0.0            -DE/DX =    0.0                 !
 --------------------------------------------------------------------------------
 GradGradGradGradGradGradGradGradGradGradGradGradGradGradGradGradGradGrad


 ----------------------------------------------------------------------

 Electric dipole moment (input orientation):
 (Debye = 10**-18 statcoulomb cm , SI units = C m)
                  (au)            (Debye)         (10**-30 SI)
   Tot        0.658482D+00      0.167369D+01      0.558284D+01
   x         -0.658387D+00     -0.167345D+01     -0.558204D+01
   y          0.111795D-01      0.284155D-01      0.947838D-01
   z          0.000000D+00      0.000000D+00      0.000000D+00

 Dipole polarizability, Alpha (input orientation).
 (esu units = cm**3 , SI units = C**2 m**2 J**-1)
 Alpha(0;0):
               (au)            (10**-24 esu)      (10**-40 SI)
   iso        0.710632D+02      0.105305D+02      0.117167D+02
   aniso      0.420183D+02      0.622647D+01      0.692789D+01
   xx         0.978483D+02      0.144996D+02      0.161330D+02
   yx         0.594985D+01      0.881676D+00      0.980997D+00
   yy         0.615479D+02      0.912046D+01      0.101479D+02
   zx         0.000000D+00      0.000000D+00      0.000000D+00
   zy         0.000000D+00      0.000000D+00      0.000000D+00
   zz         0.537935D+02      0.797137D+01      0.886935D+01

 ----------------------------------------------------------------------

 Dipole orientation:
    14         -0.00310746         -0.18300556         -2.94304420
     1         -0.05060664         -2.98034439         -2.69075149
     1          2.27055201          0.52914150         -4.43752577
     1         -2.25127847          0.60592278         -4.43752577
    14         -0.00545591         -0.32131155          3.02903037
     1          0.05667262          3.33758405          0.32818053
     1         -0.05274704         -3.10639747          3.15227660
     1          0.01567117          0.92291200          5.52890038
     6          0.02188148          1.28865172          0.22890232

 Electric dipole moment (dipole orientation):
 (Debye = 10**-18 statcoulomb cm , SI units = C m)
                  (au)            (Debye)         (10**-30 SI)
   Tot        0.658482D+00      0.167369D+01      0.558284D+01
   x          0.000000D+00      0.000000D+00      0.000000D+00
   y          0.000000D+00      0.000000D+00      0.000000D+00
   z          0.658482D+00      0.167369D+01      0.558284D+01

 Dipole polarizability, Alpha (dipole orientation).
 (esu units = cm**3 , SI units = C**2 m**2 J**-1)
 Alpha(0;0):
               (au)            (10**-24 esu)      (10**-40 SI)
   iso        0.710632D+02      0.105305D+02      0.117167D+02
   aniso      0.420183D+02      0.622647D+01      0.692789D+01
   xx         0.537958D+02      0.797171D+01      0.886973D+01
   yx         0.135239D+00      0.200404D-01      0.222979D-01
   yy         0.617580D+02      0.915160D+01      0.101825D+02
   zx        -0.111418D+00     -0.165105D-01     -0.183704D-01
   zy        -0.656168D+01     -0.972341D+00     -0.108187D+01
   zz         0.976358D+02      0.144681D+02      0.160980D+02

 ----------------------------------------------------------------------
 1\1\GINC-CN0921\Freq\RB3LYP\CC-pVTZ\C1H6Si2\U49BYC00\29-Dec-2022\0\\#N
  Geom=AllCheck Guess=TCheck SCRF=Check GenChk RB3LYP/CC-pVTZ Freq\\Tit
 le Card Required\\0,1\Si,1.5555230564,-0.1232832789,0.\H,1.3968992628,
 -1.60130459,0.\H,2.3529986149,0.2604574412,1.1965972902\H,2.3529986149
 ,0.2604574412,-1.1965972902\Si,-1.6055499605,-0.1428173218,0.\H,-0.143
 6507697,1.7691218605,0.\H,-1.6957850441,-1.6155140545,0.\H,-2.91705356
 14,0.5380567638,0.\C,-0.1095332534,0.6839816286,0.\\Version=ES64L-G16R
 evB.01\State=1-A'\HF=-620.7258936\RMSD=1.395e-09\RMSF=2.925e-05\ZeroPo
 int=0.0563642\Thermal=0.0619544\Dipole=-0.6583873,0.0111795,0.\DipoleD
 eriv=1.6562665,0.0002333,0.,-0.4366806,0.8670633,0.,0.,0.,0.892093,-0.
 2810705,-0.0230719,0.,0.0672136,-0.2829736,0.,0.,0.,-0.1988158,-0.3962
 719,-0.0168035,-0.0500471,0.0461962,-0.201498,-0.0190178,-0.061926,-0.
 021524,-0.2673518,-0.3962719,-0.0168035,0.0500471,0.0461962,-0.201498,
 0.0190178,0.061926,0.021524,-0.2673518,0.734465,-0.0908722,0.,0.005912
 7,0.7771905,0.,0.,0.,0.3201788,0.0389272,0.0115921,0.,0.0208558,-0.043
 8878,0.,0.,0.,0.1428866,-0.2038149,0.0269281,0.,-0.0184588,-0.1994139,
 0.,0.,0.,-0.0457857,-0.2630739,0.0182372,0.,0.0158238,-0.1999701,0.,0.
 ,0.,-0.0263431,-0.8891557,0.0905604,0.,0.2529411,-0.5150123,0.,0.,0.,-
 0.5495102\Polar=97.8483039,5.9498472,61.5478822,0.,0.,53.7935003\Quadr
 upole=0.5537233,0.4130397,-0.966763,0.5138818,0.,0.\PG=CS [SG(C1H4Si2)
 ,X(H2)]\NImag=0\\0.30870856,0.00458165,0.30974747,0.,0.,0.29320053,-0.
 02820312,-0.01877629,0.,0.02474216,-0.01680887,-0.16656364,0.,0.016733
 17,0.17858040,0.,0.,-0.02633826,0.,0.,0.02057751,-0.06337148,-0.020478
 90,-0.06049473,0.00108090,-0.00101349,-0.00175760,0.06617163,-0.020324
 40,-0.03640581,-0.02976137,-0.00682937,-0.00277142,-0.01068164,0.02156
 944,0.03089291,-0.06006223,-0.02999562,-0.11840386,-0.00041145,-0.0005
 9104,0.00158934,0.06681175,0.03320253,0.12325568,-0.06337148,-0.020478
 90,0.06049473,0.00108090,-0.00101349,0.00175760,0.00522598,0.00130383,
 -0.00513533,0.06617163,-0.02032440,-0.03640581,0.02976137,-0.00682937,
 -0.00277142,0.01068164,0.00130383,0.00352438,-0.00304862,0.02156944,0.
 03089291,0.06006224,0.02999562,-0.11840386,0.00041145,0.00059104,0.001
 58934,0.00513533,0.00304862,-0.00932642,-0.06681175,-0.03320253,0.1232
 5568,-0.01334487,-0.00917662,0.,0.00188217,-0.00025357,0.,0.00006212,0
 .00123379,0.00027007,0.00006212,0.00123379,-0.00027007,0.43913428,0.00
 295274,0.00565768,0.,-0.00031266,-0.00168487,0.,0.00200499,-0.00113154
 ,0.00041295,0.00200499,-0.00113154,-0.00041294,0.06240926,0.36228716,0
 .,0.,-0.00320272,0.,0.,-0.00032796,-0.00167709,0.00069771,0.00039973,0
 .00167709,-0.00069771,0.00039973,0.,0.,0.03701392,0.00098453,0.0188155
 6,0.,-0.00365596,0.00185022,0.,0.00032152,-0.00119255,-0.00013980,0.00
 032152,-0.00119255,0.00013980,-0.00195449,-0.01976658,0.,0.03648920,-0
 .00250815,-0.00645960,0.,0.00127648,0.00014422,0.,0.00014279,0.0003697
 2,0.00012574,0.00014279,0.00036972,-0.00012574,0.00404573,-0.00858096,
 0.,-0.00836892,0.34823044,0.,0.,0.00074368,0.,0.,0.00128347,0.00045991
 ,-0.00038445,-0.00005342,-0.00045991,0.00038445,-0.00005342,0.,0.,-0.0
 0098263,0.,0.,0.01569061,0.00135620,0.00018311,0.,-0.00023014,-0.00001
 728,0.,-0.00003933,-0.00010074,-0.00005062,-0.00003933,-0.00010074,0.0
 0005062,-0.02760670,-0.00523825,0.,-0.00361615,-0.00139000,0.,0.023889
 49,0.00104966,-0.00144988,0.,0.00001258,0.00050869,0.,-0.00022773,0.00
 029224,-0.00003355,-0.00022773,0.00029224,0.00003355,-0.00783211,-0.18
 304402,0.,-0.00186935,0.00025725,0.,0.00977746,0.18994302,0.,0.,-0.001
 04205,0.,0.,0.00005212,-0.00006718,-0.00025334,-0.00000275,0.00006718,
 0.00025334,-0.00000275,0.,0.,-0.01238188,0.,0.,0.00682901,0.,0.,0.0081
 5927,0.00029157,-0.00236907,0.,-0.00001346,0.00022819,0.,-0.00064418,0
 .00028121,-0.00008271,-0.00064418,0.00028121,0.00008271,-0.14614846,0.
 06404145,0.,0.00096580,-0.00003879,0.,0.00248825,-0.00078483,0.,0.1523
 1981,-0.00057252,-0.00176433,0.,0.00014102,0.00046627,0.,-0.00032118,0
 .00035919,-0.00007236,-0.00032118,0.00035918,0.00007236,0.06527686,-0.
 06280318,0.,0.00156341,0.00074066,0.,0.01036722,-0.00323437,0.,-0.0680
 4464,0.05854441,0.,0.,0.00587795,0.,0.,-0.00016289,0.00123851,-0.00044
 680,-0.00030183,-0.00123851,0.00044680,-0.00030183,0.,0.,-0.01266876,0
 .,0.,-0.00287839,0.,0.,0.00137209,0.,0.,0.00782437,-0.14304991,0.04769
 946,0.,0.00331655,0.00029513,0.,-0.00880715,0.00405880,-0.00119968,-0.
 00880715,0.00405879,0.00119968,-0.25208616,-0.10809594,0.,-0.02985597,
 0.00669807,0.,0.00379771,0.00010206,0.,-0.00861516,-0.00808900,0.,0.44
 410724,0.05195429,-0.06635606,0.,0.01458444,-0.00590823,0.,-0.00297975
 ,0.00487033,-0.00000002,-0.00297975,0.00487033,0.00000002,-0.11693713,
 -0.10956872,0.,0.01016077,-0.33507143,0.,-0.01348077,-0.00356516,0.,0.
 00640526,0.00733217,0.,0.05327264,0.50339677,0.,0.,-0.03243143,0.,0.,0
 .00173733,-0.00964891,0.00457873,0.00284352,0.00964891,-0.00457873,0.0
 0284352,0.,0.,-0.00824944,0.,0.,-0.02057891,0.,0.,-0.00298304,0.,0.,0.
 00123929,0.,0.,0.05557914\\0.00008290,0.00007596,0.,0.00002373,-0.0000
 2126,0.,-0.00004719,-0.00003772,0.00002377,-0.00004719,-0.00003772,-0.
 00002377,0.00001020,-0.00001285,0.,-0.00001215,0.00000185,0.,-0.000004
 37,0.00000269,0.,0.00000203,0.00000827,0.,-0.00000796,0.00002077,0.\\\
 @


 One man practicing sportsmanship is far better than 50 preaching it.
 -- Knute K. Rockne
 Job cpu time:       0 days  0 hours  5 minutes 59.4 seconds.
 Elapsed time:       0 days  0 hours  0 minutes 45.8 seconds.
 File lengths (MBytes):  RWF=     32 Int=      0 D2E=      0 Chk=      4 Scr=      1
 Normal termination of Gaussian 16 at Thu Dec 29 19:16:10 2022.
